V -t * -v 1.0a5 -a 0
A -t * -n 1 -p 0 -o 0x7fffffff -c 30 -a 1
A -t * -h 1 -m 1073741823 -s 0
c -t * -i 1 -n Red
c -t * -i 2 -n Green
c -t * -i 3 -n Blue
n -t * -a 4 -s 4 -S UP -v circle -c black -i black
n -t * -a 0 -s 0 -S UP -v circle -c black -i black
n -t * -a 5 -s 5 -S UP -v circle -c black -i black
n -t * -a 1 -s 1 -S UP -v circle -c black -i black
n -t * -a 2 -s 2 -S UP -v circle -c black -i black
n -t * -a 3 -s 3 -S UP -v circle -c black -i black
l -t * -s 1 -d 2 -S UP -r 1000000 -D 0.01 -c black
l -t * -s 3 -d 4 -S UP -r 2000000 -D 0.01 -c black
l -t * -s 0 -d 5 -S UP -r 2000000 -D 0.01 -c black
l -t * -s 1 -d 5 -S UP -r 1000000 -D 0.01 -c black
l -t * -s 2 -d 5 -S UP -r 1000000 -D 0.01 -c black
l -t * -s 3 -d 5 -S UP -r 2000000 -D 0.01 -c black
l -t * -s 4 -d 5 -S UP -r 10000000 -D 0.02 -c black
q -t * -s 1 -d 5 -a 0.5
q -t * -s 5 -d 1 -a 0.5
q -t * -s 2 -d 5 -a 0.5
q -t * -s 5 -d 2 -a 0.5
q -t * -s 5 -d 3 -a 0.5
q -t * -s 3 -d 5 -a 0.5
q -t * -s 5 -d 4 -a 0.5
q -t * -s 4 -d 5 -a 0.5
q -t * -s 0 -d 5 -a 0.5
q -t * -s 5 -d 0 -a 0.5
+ -t 0.1 -s 0 -d 5 -p tcp -e 40 -c 1 -i 0 -a 1 -x {0.0 4.0 0 ------- null}
- -t 0.1 -s 0 -d 5 -p tcp -e 40 -c 1 -i 0 -a 1 -x {0.0 4.0 0 ------- null}
h -t 0.1 -s 0 -d 5 -p tcp -e 40 -c 1 -i 0 -a 1 -x {0.0 4.0 -1 ------- null}
r -t 0.11016 -s 0 -d 5 -p tcp -e 40 -c 1 -i 0 -a 1 -x {0.0 4.0 0 ------- null}
+ -t 0.11016 -s 5 -d 4 -p tcp -e 40 -c 1 -i 0 -a 1 -x {0.0 4.0 0 ------- null}
- -t 0.11016 -s 5 -d 4 -p tcp -e 40 -c 1 -i 0 -a 1 -x {0.0 4.0 0 ------- null}
h -t 0.11016 -s 5 -d 4 -p tcp -e 40 -c 1 -i 0 -a 1 -x {0.0 4.0 -1 ------- null}
r -t 0.130192 -s 5 -d 4 -p tcp -e 40 -c 1 -i 0 -a 1 -x {0.0 4.0 0 ------- null}
+ -t 0.130192 -s 4 -d 5 -p ack -e 40 -c 1 -i 1 -a 1 -x {4.0 0.0 0 ------- null}
- -t 0.130192 -s 4 -d 5 -p ack -e 40 -c 1 -i 1 -a 1 -x {4.0 0.0 0 ------- null}
h -t 0.130192 -s 4 -d 5 -p ack -e 40 -c 1 -i 1 -a 1 -x {4.0 0.0 -1 ------- null}
r -t 0.150224 -s 4 -d 5 -p ack -e 40 -c 1 -i 1 -a 1 -x {4.0 0.0 0 ------- null}
+ -t 0.150224 -s 5 -d 0 -p ack -e 40 -c 1 -i 1 -a 1 -x {4.0 0.0 0 ------- null}
- -t 0.150224 -s 5 -d 0 -p ack -e 40 -c 1 -i 1 -a 1 -x {4.0 0.0 0 ------- null}
h -t 0.150224 -s 5 -d 0 -p ack -e 40 -c 1 -i 1 -a 1 -x {4.0 0.0 -1 ------- null}
r -t 0.160384 -s 5 -d 0 -p ack -e 40 -c 1 -i 1 -a 1 -x {4.0 0.0 0 ------- null}
+ -t 0.160384 -s 0 -d 5 -p tcp -e 1040 -c 1 -i 2 -a 1 -x {0.0 4.0 1 ------- null}
- -t 0.160384 -s 0 -d 5 -p tcp -e 1040 -c 1 -i 2 -a 1 -x {0.0 4.0 1 ------- null}
h -t 0.160384 -s 0 -d 5 -p tcp -e 1040 -c 1 -i 2 -a 1 -x {0.0 4.0 -1 ------- null}
+ -t 0.160384 -s 0 -d 5 -p tcp -e 1040 -c 1 -i 3 -a 1 -x {0.0 4.0 2 ------- null}
- -t 0.164544 -s 0 -d 5 -p tcp -e 1040 -c 1 -i 3 -a 1 -x {0.0 4.0 2 ------- null}
h -t 0.164544 -s 0 -d 5 -p tcp -e 1040 -c 1 -i 3 -a 1 -x {0.0 4.0 -1 ------- null}
r -t 0.174544 -s 0 -d 5 -p tcp -e 1040 -c 1 -i 2 -a 1 -x {0.0 4.0 1 ------- null}
+ -t 0.174544 -s 5 -d 4 -p tcp -e 1040 -c 1 -i 2 -a 1 -x {0.0 4.0 1 ------- null}
- -t 0.174544 -s 5 -d 4 -p tcp -e 1040 -c 1 -i 2 -a 1 -x {0.0 4.0 1 ------- null}
h -t 0.174544 -s 5 -d 4 -p tcp -e 1040 -c 1 -i 2 -a 1 -x {0.0 4.0 -1 ------- null}
r -t 0.178704 -s 0 -d 5 -p tcp -e 1040 -c 1 -i 3 -a 1 -x {0.0 4.0 2 ------- null}
+ -t 0.178704 -s 5 -d 4 -p tcp -e 1040 -c 1 -i 3 -a 1 -x {0.0 4.0 2 ------- null}
- -t 0.178704 -s 5 -d 4 -p tcp -e 1040 -c 1 -i 3 -a 1 -x {0.0 4.0 2 ------- null}
h -t 0.178704 -s 5 -d 4 -p tcp -e 1040 -c 1 -i 3 -a 1 -x {0.0 4.0 -1 ------- null}
r -t 0.195376 -s 5 -d 4 -p tcp -e 1040 -c 1 -i 2 -a 1 -x {0.0 4.0 1 ------- null}
+ -t 0.195376 -s 4 -d 5 -p ack -e 40 -c 1 -i 4 -a 1 -x {4.0 0.0 1 ------- null}
- -t 0.195376 -s 4 -d 5 -p ack -e 40 -c 1 -i 4 -a 1 -x {4.0 0.0 1 ------- null}
h -t 0.195376 -s 4 -d 5 -p ack -e 40 -c 1 -i 4 -a 1 -x {4.0 0.0 -1 ------- null}
r -t 0.199536 -s 5 -d 4 -p tcp -e 1040 -c 1 -i 3 -a 1 -x {0.0 4.0 2 ------- null}
+ -t 0.199536 -s 4 -d 5 -p ack -e 40 -c 1 -i 5 -a 1 -x {4.0 0.0 2 ------- null}
- -t 0.199536 -s 4 -d 5 -p ack -e 40 -c 1 -i 5 -a 1 -x {4.0 0.0 2 ------- null}
h -t 0.199536 -s 4 -d 5 -p ack -e 40 -c 1 -i 5 -a 1 -x {4.0 0.0 -1 ------- null}
r -t 0.215408 -s 4 -d 5 -p ack -e 40 -c 1 -i 4 -a 1 -x {4.0 0.0 1 ------- null}
+ -t 0.215408 -s 5 -d 0 -p ack -e 40 -c 1 -i 4 -a 1 -x {4.0 0.0 1 ------- null}
- -t 0.215408 -s 5 -d 0 -p ack -e 40 -c 1 -i 4 -a 1 -x {4.0 0.0 1 ------- null}
h -t 0.215408 -s 5 -d 0 -p ack -e 40 -c 1 -i 4 -a 1 -x {4.0 0.0 -1 ------- null}
r -t 0.219568 -s 4 -d 5 -p ack -e 40 -c 1 -i 5 -a 1 -x {4.0 0.0 2 ------- null}
+ -t 0.219568 -s 5 -d 0 -p ack -e 40 -c 1 -i 5 -a 1 -x {4.0 0.0 2 ------- null}
- -t 0.219568 -s 5 -d 0 -p ack -e 40 -c 1 -i 5 -a 1 -x {4.0 0.0 2 ------- null}
h -t 0.219568 -s 5 -d 0 -p ack -e 40 -c 1 -i 5 -a 1 -x {4.0 0.0 -1 ------- null}
r -t 0.225568 -s 5 -d 0 -p ack -e 40 -c 1 -i 4 -a 1 -x {4.0 0.0 1 ------- null}
+ -t 0.225568 -s 0 -d 5 -p tcp -e 1040 -c 1 -i 6 -a 1 -x {0.0 4.0 3 ------- null}
- -t 0.225568 -s 0 -d 5 -p tcp -e 1040 -c 1 -i 6 -a 1 -x {0.0 4.0 3 ------- null}
h -t 0.225568 -s 0 -d 5 -p tcp -e 1040 -c 1 -i 6 -a 1 -x {0.0 4.0 -1 ------- null}
+ -t 0.225568 -s 0 -d 5 -p tcp -e 1040 -c 1 -i 7 -a 1 -x {0.0 4.0 4 ------- null}
r -t 0.229728 -s 5 -d 0 -p ack -e 40 -c 1 -i 5 -a 1 -x {4.0 0.0 2 ------- null}
+ -t 0.229728 -s 0 -d 5 -p tcp -e 1040 -c 1 -i 8 -a 1 -x {0.0 4.0 5 ------- null}
+ -t 0.229728 -s 0 -d 5 -p tcp -e 1040 -c 1 -i 9 -a 1 -x {0.0 4.0 6 ------- null}
- -t 0.229728 -s 0 -d 5 -p tcp -e 1040 -c 1 -i 7 -a 1 -x {0.0 4.0 4 ------- null}
h -t 0.229728 -s 0 -d 5 -p tcp -e 1040 -c 1 -i 7 -a 1 -x {0.0 4.0 -1 ------- null}
- -t 0.233888 -s 0 -d 5 -p tcp -e 1040 -c 1 -i 8 -a 1 -x {0.0 4.0 5 ------- null}
h -t 0.233888 -s 0 -d 5 -p tcp -e 1040 -c 1 -i 8 -a 1 -x {0.0 4.0 -1 ------- null}
- -t 0.238048 -s 0 -d 5 -p tcp -e 1040 -c 1 -i 9 -a 1 -x {0.0 4.0 6 ------- null}
h -t 0.238048 -s 0 -d 5 -p tcp -e 1040 -c 1 -i 9 -a 1 -x {0.0 4.0 -1 ------- null}
r -t 0.239728 -s 0 -d 5 -p tcp -e 1040 -c 1 -i 6 -a 1 -x {0.0 4.0 3 ------- null}
+ -t 0.239728 -s 5 -d 4 -p tcp -e 1040 -c 1 -i 6 -a 1 -x {0.0 4.0 3 ------- null}
- -t 0.239728 -s 5 -d 4 -p tcp -e 1040 -c 1 -i 6 -a 1 -x {0.0 4.0 3 ------- null}
h -t 0.239728 -s 5 -d 4 -p tcp -e 1040 -c 1 -i 6 -a 1 -x {0.0 4.0 -1 ------- null}
r -t 0.243888 -s 0 -d 5 -p tcp -e 1040 -c 1 -i 7 -a 1 -x {0.0 4.0 4 ------- null}
+ -t 0.243888 -s 5 -d 4 -p tcp -e 1040 -c 1 -i 7 -a 1 -x {0.0 4.0 4 ------- null}
- -t 0.243888 -s 5 -d 4 -p tcp -e 1040 -c 1 -i 7 -a 1 -x {0.0 4.0 4 ------- null}
h -t 0.243888 -s 5 -d 4 -p tcp -e 1040 -c 1 -i 7 -a 1 -x {0.0 4.0 -1 ------- null}
r -t 0.248048 -s 0 -d 5 -p tcp -e 1040 -c 1 -i 8 -a 1 -x {0.0 4.0 5 ------- null}
+ -t 0.248048 -s 5 -d 4 -p tcp -e 1040 -c 1 -i 8 -a 1 -x {0.0 4.0 5 ------- null}
- -t 0.248048 -s 5 -d 4 -p tcp -e 1040 -c 1 -i 8 -a 1 -x {0.0 4.0 5 ------- null}
h -t 0.248048 -s 5 -d 4 -p tcp -e 1040 -c 1 -i 8 -a 1 -x {0.0 4.0 -1 ------- null}
r -t 0.252208 -s 0 -d 5 -p tcp -e 1040 -c 1 -i 9 -a 1 -x {0.0 4.0 6 ------- null}
+ -t 0.252208 -s 5 -d 4 -p tcp -e 1040 -c 1 -i 9 -a 1 -x {0.0 4.0 6 ------- null}
- -t 0.252208 -s 5 -d 4 -p tcp -e 1040 -c 1 -i 9 -a 1 -x {0.0 4.0 6 ------- null}
h -t 0.252208 -s 5 -d 4 -p tcp -e 1040 -c 1 -i 9 -a 1 -x {0.0 4.0 -1 ------- null}
r -t 0.26056 -s 5 -d 4 -p tcp -e 1040 -c 1 -i 6 -a 1 -x {0.0 4.0 3 ------- null}
+ -t 0.26056 -s 4 -d 5 -p ack -e 40 -c 1 -i 10 -a 1 -x {4.0 0.0 3 ------- null}
- -t 0.26056 -s 4 -d 5 -p ack -e 40 -c 1 -i 10 -a 1 -x {4.0 0.0 3 ------- null}
h -t 0.26056 -s 4 -d 5 -p ack -e 40 -c 1 -i 10 -a 1 -x {4.0 0.0 -1 ------- null}
r -t 0.26472 -s 5 -d 4 -p tcp -e 1040 -c 1 -i 7 -a 1 -x {0.0 4.0 4 ------- null}
+ -t 0.26472 -s 4 -d 5 -p ack -e 40 -c 1 -i 11 -a 1 -x {4.0 0.0 4 ------- null}
- -t 0.26472 -s 4 -d 5 -p ack -e 40 -c 1 -i 11 -a 1 -x {4.0 0.0 4 ------- null}
h -t 0.26472 -s 4 -d 5 -p ack -e 40 -c 1 -i 11 -a 1 -x {4.0 0.0 -1 ------- null}
r -t 0.26888 -s 5 -d 4 -p tcp -e 1040 -c 1 -i 8 -a 1 -x {0.0 4.0 5 ------- null}
+ -t 0.26888 -s 4 -d 5 -p ack -e 40 -c 1 -i 12 -a 1 -x {4.0 0.0 5 ------- null}
- -t 0.26888 -s 4 -d 5 -p ack -e 40 -c 1 -i 12 -a 1 -x {4.0 0.0 5 ------- null}
h -t 0.26888 -s 4 -d 5 -p ack -e 40 -c 1 -i 12 -a 1 -x {4.0 0.0 -1 ------- null}
r -t 0.27304 -s 5 -d 4 -p tcp -e 1040 -c 1 -i 9 -a 1 -x {0.0 4.0 6 ------- null}
+ -t 0.27304 -s 4 -d 5 -p ack -e 40 -c 1 -i 13 -a 1 -x {4.0 0.0 6 ------- null}
- -t 0.27304 -s 4 -d 5 -p ack -e 40 -c 1 -i 13 -a 1 -x {4.0 0.0 6 ------- null}
h -t 0.27304 -s 4 -d 5 -p ack -e 40 -c 1 -i 13 -a 1 -x {4.0 0.0 -1 ------- null}
r -t 0.280592 -s 4 -d 5 -p ack -e 40 -c 1 -i 10 -a 1 -x {4.0 0.0 3 ------- null}
+ -t 0.280592 -s 5 -d 0 -p ack -e 40 -c 1 -i 10 -a 1 -x {4.0 0.0 3 ------- null}
- -t 0.280592 -s 5 -d 0 -p ack -e 40 -c 1 -i 10 -a 1 -x {4.0 0.0 3 ------- null}
h -t 0.280592 -s 5 -d 0 -p ack -e 40 -c 1 -i 10 -a 1 -x {4.0 0.0 -1 ------- null}
r -t 0.284752 -s 4 -d 5 -p ack -e 40 -c 1 -i 11 -a 1 -x {4.0 0.0 4 ------- null}
+ -t 0.284752 -s 5 -d 0 -p ack -e 40 -c 1 -i 11 -a 1 -x {4.0 0.0 4 ------- null}
- -t 0.284752 -s 5 -d 0 -p ack -e 40 -c 1 -i 11 -a 1 -x {4.0 0.0 4 ------- null}
h -t 0.284752 -s 5 -d 0 -p ack -e 40 -c 1 -i 11 -a 1 -x {4.0 0.0 -1 ------- null}
r -t 0.288912 -s 4 -d 5 -p ack -e 40 -c 1 -i 12 -a 1 -x {4.0 0.0 5 ------- null}
+ -t 0.288912 -s 5 -d 0 -p ack -e 40 -c 1 -i 12 -a 1 -x {4.0 0.0 5 ------- null}
- -t 0.288912 -s 5 -d 0 -p ack -e 40 -c 1 -i 12 -a 1 -x {4.0 0.0 5 ------- null}
h -t 0.288912 -s 5 -d 0 -p ack -e 40 -c 1 -i 12 -a 1 -x {4.0 0.0 -1 ------- null}
r -t 0.290752 -s 5 -d 0 -p ack -e 40 -c 1 -i 10 -a 1 -x {4.0 0.0 3 ------- null}
+ -t 0.290752 -s 0 -d 5 -p tcp -e 1040 -c 1 -i 14 -a 1 -x {0.0 4.0 7 ------- null}
- -t 0.290752 -s 0 -d 5 -p tcp -e 1040 -c 1 -i 14 -a 1 -x {0.0 4.0 7 ------- null}
h -t 0.290752 -s 0 -d 5 -p tcp -e 1040 -c 1 -i 14 -a 1 -x {0.0 4.0 -1 ------- null}
+ -t 0.290752 -s 0 -d 5 -p tcp -e 1040 -c 1 -i 15 -a 1 -x {0.0 4.0 8 ------- null}
r -t 0.293072 -s 4 -d 5 -p ack -e 40 -c 1 -i 13 -a 1 -x {4.0 0.0 6 ------- null}
+ -t 0.293072 -s 5 -d 0 -p ack -e 40 -c 1 -i 13 -a 1 -x {4.0 0.0 6 ------- null}
- -t 0.293072 -s 5 -d 0 -p ack -e 40 -c 1 -i 13 -a 1 -x {4.0 0.0 6 ------- null}
h -t 0.293072 -s 5 -d 0 -p ack -e 40 -c 1 -i 13 -a 1 -x {4.0 0.0 -1 ------- null}
r -t 0.294912 -s 5 -d 0 -p ack -e 40 -c 1 -i 11 -a 1 -x {4.0 0.0 4 ------- null}
+ -t 0.294912 -s 0 -d 5 -p tcp -e 1040 -c 1 -i 16 -a 1 -x {0.0 4.0 9 ------- null}
+ -t 0.294912 -s 0 -d 5 -p tcp -e 1040 -c 1 -i 17 -a 1 -x {0.0 4.0 10 ------- null}
- -t 0.294912 -s 0 -d 5 -p tcp -e 1040 -c 1 -i 15 -a 1 -x {0.0 4.0 8 ------- null}
h -t 0.294912 -s 0 -d 5 -p tcp -e 1040 -c 1 -i 15 -a 1 -x {0.0 4.0 -1 ------- null}
r -t 0.299072 -s 5 -d 0 -p ack -e 40 -c 1 -i 12 -a 1 -x {4.0 0.0 5 ------- null}
+ -t 0.299072 -s 0 -d 5 -p tcp -e 1040 -c 1 -i 18 -a 1 -x {0.0 4.0 11 ------- null}
+ -t 0.299072 -s 0 -d 5 -p tcp -e 1040 -c 1 -i 19 -a 1 -x {0.0 4.0 12 ------- null}
- -t 0.299072 -s 0 -d 5 -p tcp -e 1040 -c 1 -i 16 -a 1 -x {0.0 4.0 9 ------- null}
h -t 0.299072 -s 0 -d 5 -p tcp -e 1040 -c 1 -i 16 -a 1 -x {0.0 4.0 -1 ------- null}
r -t 0.303232 -s 5 -d 0 -p ack -e 40 -c 1 -i 13 -a 1 -x {4.0 0.0 6 ------- null}
+ -t 0.303232 -s 0 -d 5 -p tcp -e 1040 -c 1 -i 20 -a 1 -x {0.0 4.0 13 ------- null}
+ -t 0.303232 -s 0 -d 5 -p tcp -e 1040 -c 1 -i 21 -a 1 -x {0.0 4.0 14 ------- null}
- -t 0.303232 -s 0 -d 5 -p tcp -e 1040 -c 1 -i 17 -a 1 -x {0.0 4.0 10 ------- null}
h -t 0.303232 -s 0 -d 5 -p tcp -e 1040 -c 1 -i 17 -a 1 -x {0.0 4.0 -1 ------- null}
r -t 0.304912 -s 0 -d 5 -p tcp -e 1040 -c 1 -i 14 -a 1 -x {0.0 4.0 7 ------- null}
+ -t 0.304912 -s 5 -d 4 -p tcp -e 1040 -c 1 -i 14 -a 1 -x {0.0 4.0 7 ------- null}
- -t 0.304912 -s 5 -d 4 -p tcp -e 1040 -c 1 -i 14 -a 1 -x {0.0 4.0 7 ------- null}
h -t 0.304912 -s 5 -d 4 -p tcp -e 1040 -c 1 -i 14 -a 1 -x {0.0 4.0 -1 ------- null}
- -t 0.307392 -s 0 -d 5 -p tcp -e 1040 -c 1 -i 18 -a 1 -x {0.0 4.0 11 ------- null}
h -t 0.307392 -s 0 -d 5 -p tcp -e 1040 -c 1 -i 18 -a 1 -x {0.0 4.0 -1 ------- null}
r -t 0.309072 -s 0 -d 5 -p tcp -e 1040 -c 1 -i 15 -a 1 -x {0.0 4.0 8 ------- null}
+ -t 0.309072 -s 5 -d 4 -p tcp -e 1040 -c 1 -i 15 -a 1 -x {0.0 4.0 8 ------- null}
- -t 0.309072 -s 5 -d 4 -p tcp -e 1040 -c 1 -i 15 -a 1 -x {0.0 4.0 8 ------- null}
h -t 0.309072 -s 5 -d 4 -p tcp -e 1040 -c 1 -i 15 -a 1 -x {0.0 4.0 -1 ------- null}
- -t 0.311552 -s 0 -d 5 -p tcp -e 1040 -c 1 -i 19 -a 1 -x {0.0 4.0 12 ------- null}
h -t 0.311552 -s 0 -d 5 -p tcp -e 1040 -c 1 -i 19 -a 1 -x {0.0 4.0 -1 ------- null}
r -t 0.313232 -s 0 -d 5 -p tcp -e 1040 -c 1 -i 16 -a 1 -x {0.0 4.0 9 ------- null}
+ -t 0.313232 -s 5 -d 4 -p tcp -e 1040 -c 1 -i 16 -a 1 -x {0.0 4.0 9 ------- null}
- -t 0.313232 -s 5 -d 4 -p tcp -e 1040 -c 1 -i 16 -a 1 -x {0.0 4.0 9 ------- null}
h -t 0.313232 -s 5 -d 4 -p tcp -e 1040 -c 1 -i 16 -a 1 -x {0.0 4.0 -1 ------- null}
- -t 0.315712 -s 0 -d 5 -p tcp -e 1040 -c 1 -i 20 -a 1 -x {0.0 4.0 13 ------- null}
h -t 0.315712 -s 0 -d 5 -p tcp -e 1040 -c 1 -i 20 -a 1 -x {0.0 4.0 -1 ------- null}
r -t 0.317392 -s 0 -d 5 -p tcp -e 1040 -c 1 -i 17 -a 1 -x {0.0 4.0 10 ------- null}
+ -t 0.317392 -s 5 -d 4 -p tcp -e 1040 -c 1 -i 17 -a 1 -x {0.0 4.0 10 ------- null}
- -t 0.317392 -s 5 -d 4 -p tcp -e 1040 -c 1 -i 17 -a 1 -x {0.0 4.0 10 ------- null}
h -t 0.317392 -s 5 -d 4 -p tcp -e 1040 -c 1 -i 17 -a 1 -x {0.0 4.0 -1 ------- null}
- -t 0.319872 -s 0 -d 5 -p tcp -e 1040 -c 1 -i 21 -a 1 -x {0.0 4.0 14 ------- null}
h -t 0.319872 -s 0 -d 5 -p tcp -e 1040 -c 1 -i 21 -a 1 -x {0.0 4.0 -1 ------- null}
r -t 0.321552 -s 0 -d 5 -p tcp -e 1040 -c 1 -i 18 -a 1 -x {0.0 4.0 11 ------- null}
+ -t 0.321552 -s 5 -d 4 -p tcp -e 1040 -c 1 -i 18 -a 1 -x {0.0 4.0 11 ------- null}
- -t 0.321552 -s 5 -d 4 -p tcp -e 1040 -c 1 -i 18 -a 1 -x {0.0 4.0 11 ------- null}
h -t 0.321552 -s 5 -d 4 -p tcp -e 1040 -c 1 -i 18 -a 1 -x {0.0 4.0 -1 ------- null}
r -t 0.325712 -s 0 -d 5 -p tcp -e 1040 -c 1 -i 19 -a 1 -x {0.0 4.0 12 ------- null}
+ -t 0.325712 -s 5 -d 4 -p tcp -e 1040 -c 1 -i 19 -a 1 -x {0.0 4.0 12 ------- null}
- -t 0.325712 -s 5 -d 4 -p tcp -e 1040 -c 1 -i 19 -a 1 -x {0.0 4.0 12 ------- null}
h -t 0.325712 -s 5 -d 4 -p tcp -e 1040 -c 1 -i 19 -a 1 -x {0.0 4.0 -1 ------- null}
r -t 0.325744 -s 5 -d 4 -p tcp -e 1040 -c 1 -i 14 -a 1 -x {0.0 4.0 7 ------- null}
+ -t 0.325744 -s 4 -d 5 -p ack -e 40 -c 1 -i 22 -a 1 -x {4.0 0.0 7 ------- null}
- -t 0.325744 -s 4 -d 5 -p ack -e 40 -c 1 -i 22 -a 1 -x {4.0 0.0 7 ------- null}
h -t 0.325744 -s 4 -d 5 -p ack -e 40 -c 1 -i 22 -a 1 -x {4.0 0.0 -1 ------- null}
r -t 0.329872 -s 0 -d 5 -p tcp -e 1040 -c 1 -i 20 -a 1 -x {0.0 4.0 13 ------- null}
+ -t 0.329872 -s 5 -d 4 -p tcp -e 1040 -c 1 -i 20 -a 1 -x {0.0 4.0 13 ------- null}
- -t 0.329872 -s 5 -d 4 -p tcp -e 1040 -c 1 -i 20 -a 1 -x {0.0 4.0 13 ------- null}
h -t 0.329872 -s 5 -d 4 -p tcp -e 1040 -c 1 -i 20 -a 1 -x {0.0 4.0 -1 ------- null}
r -t 0.329904 -s 5 -d 4 -p tcp -e 1040 -c 1 -i 15 -a 1 -x {0.0 4.0 8 ------- null}
+ -t 0.329904 -s 4 -d 5 -p ack -e 40 -c 1 -i 23 -a 1 -x {4.0 0.0 8 ------- null}
- -t 0.329904 -s 4 -d 5 -p ack -e 40 -c 1 -i 23 -a 1 -x {4.0 0.0 8 ------- null}
h -t 0.329904 -s 4 -d 5 -p ack -e 40 -c 1 -i 23 -a 1 -x {4.0 0.0 -1 ------- null}
r -t 0.334032 -s 0 -d 5 -p tcp -e 1040 -c 1 -i 21 -a 1 -x {0.0 4.0 14 ------- null}
+ -t 0.334032 -s 5 -d 4 -p tcp -e 1040 -c 1 -i 21 -a 1 -x {0.0 4.0 14 ------- null}
- -t 0.334032 -s 5 -d 4 -p tcp -e 1040 -c 1 -i 21 -a 1 -x {0.0 4.0 14 ------- null}
h -t 0.334032 -s 5 -d 4 -p tcp -e 1040 -c 1 -i 21 -a 1 -x {0.0 4.0 -1 ------- null}
r -t 0.334064 -s 5 -d 4 -p tcp -e 1040 -c 1 -i 16 -a 1 -x {0.0 4.0 9 ------- null}
+ -t 0.334064 -s 4 -d 5 -p ack -e 40 -c 1 -i 24 -a 1 -x {4.0 0.0 9 ------- null}
- -t 0.334064 -s 4 -d 5 -p ack -e 40 -c 1 -i 24 -a 1 -x {4.0 0.0 9 ------- null}
h -t 0.334064 -s 4 -d 5 -p ack -e 40 -c 1 -i 24 -a 1 -x {4.0 0.0 -1 ------- null}
r -t 0.338224 -s 5 -d 4 -p tcp -e 1040 -c 1 -i 17 -a 1 -x {0.0 4.0 10 ------- null}
+ -t 0.338224 -s 4 -d 5 -p ack -e 40 -c 1 -i 25 -a 1 -x {4.0 0.0 10 ------- null}
- -t 0.338224 -s 4 -d 5 -p ack -e 40 -c 1 -i 25 -a 1 -x {4.0 0.0 10 ------- null}
h -t 0.338224 -s 4 -d 5 -p ack -e 40 -c 1 -i 25 -a 1 -x {4.0 0.0 -1 ------- null}
r -t 0.342384 -s 5 -d 4 -p tcp -e 1040 -c 1 -i 18 -a 1 -x {0.0 4.0 11 ------- null}
+ -t 0.342384 -s 4 -d 5 -p ack -e 40 -c 1 -i 26 -a 1 -x {4.0 0.0 11 ------- null}
- -t 0.342384 -s 4 -d 5 -p ack -e 40 -c 1 -i 26 -a 1 -x {4.0 0.0 11 ------- null}
h -t 0.342384 -s 4 -d 5 -p ack -e 40 -c 1 -i 26 -a 1 -x {4.0 0.0 -1 ------- null}
r -t 0.345776 -s 4 -d 5 -p ack -e 40 -c 1 -i 22 -a 1 -x {4.0 0.0 7 ------- null}
+ -t 0.345776 -s 5 -d 0 -p ack -e 40 -c 1 -i 22 -a 1 -x {4.0 0.0 7 ------- null}
- -t 0.345776 -s 5 -d 0 -p ack -e 40 -c 1 -i 22 -a 1 -x {4.0 0.0 7 ------- null}
h -t 0.345776 -s 5 -d 0 -p ack -e 40 -c 1 -i 22 -a 1 -x {4.0 0.0 -1 ------- null}
r -t 0.346544 -s 5 -d 4 -p tcp -e 1040 -c 1 -i 19 -a 1 -x {0.0 4.0 12 ------- null}
+ -t 0.346544 -s 4 -d 5 -p ack -e 40 -c 1 -i 27 -a 1 -x {4.0 0.0 12 ------- null}
- -t 0.346544 -s 4 -d 5 -p ack -e 40 -c 1 -i 27 -a 1 -x {4.0 0.0 12 ------- null}
h -t 0.346544 -s 4 -d 5 -p ack -e 40 -c 1 -i 27 -a 1 -x {4.0 0.0 -1 ------- null}
r -t 0.349936 -s 4 -d 5 -p ack -e 40 -c 1 -i 23 -a 1 -x {4.0 0.0 8 ------- null}
+ -t 0.349936 -s 5 -d 0 -p ack -e 40 -c 1 -i 23 -a 1 -x {4.0 0.0 8 ------- null}
- -t 0.349936 -s 5 -d 0 -p ack -e 40 -c 1 -i 23 -a 1 -x {4.0 0.0 8 ------- null}
h -t 0.349936 -s 5 -d 0 -p ack -e 40 -c 1 -i 23 -a 1 -x {4.0 0.0 -1 ------- null}
r -t 0.350704 -s 5 -d 4 -p tcp -e 1040 -c 1 -i 20 -a 1 -x {0.0 4.0 13 ------- null}
+ -t 0.350704 -s 4 -d 5 -p ack -e 40 -c 1 -i 28 -a 1 -x {4.0 0.0 13 ------- null}
- -t 0.350704 -s 4 -d 5 -p ack -e 40 -c 1 -i 28 -a 1 -x {4.0 0.0 13 ------- null}
h -t 0.350704 -s 4 -d 5 -p ack -e 40 -c 1 -i 28 -a 1 -x {4.0 0.0 -1 ------- null}
r -t 0.354096 -s 4 -d 5 -p ack -e 40 -c 1 -i 24 -a 1 -x {4.0 0.0 9 ------- null}
+ -t 0.354096 -s 5 -d 0 -p ack -e 40 -c 1 -i 24 -a 1 -x {4.0 0.0 9 ------- null}
- -t 0.354096 -s 5 -d 0 -p ack -e 40 -c 1 -i 24 -a 1 -x {4.0 0.0 9 ------- null}
h -t 0.354096 -s 5 -d 0 -p ack -e 40 -c 1 -i 24 -a 1 -x {4.0 0.0 -1 ------- null}
r -t 0.354864 -s 5 -d 4 -p tcp -e 1040 -c 1 -i 21 -a 1 -x {0.0 4.0 14 ------- null}
+ -t 0.354864 -s 4 -d 5 -p ack -e 40 -c 1 -i 29 -a 1 -x {4.0 0.0 14 ------- null}
- -t 0.354864 -s 4 -d 5 -p ack -e 40 -c 1 -i 29 -a 1 -x {4.0 0.0 14 ------- null}
h -t 0.354864 -s 4 -d 5 -p ack -e 40 -c 1 -i 29 -a 1 -x {4.0 0.0 -1 ------- null}
r -t 0.355936 -s 5 -d 0 -p ack -e 40 -c 1 -i 22 -a 1 -x {4.0 0.0 7 ------- null}
+ -t 0.355936 -s 0 -d 5 -p tcp -e 1040 -c 1 -i 30 -a 1 -x {0.0 4.0 15 ------- null}
- -t 0.355936 -s 0 -d 5 -p tcp -e 1040 -c 1 -i 30 -a 1 -x {0.0 4.0 15 ------- null}
h -t 0.355936 -s 0 -d 5 -p tcp -e 1040 -c 1 -i 30 -a 1 -x {0.0 4.0 -1 ------- null}
+ -t 0.355936 -s 0 -d 5 -p tcp -e 1040 -c 1 -i 31 -a 1 -x {0.0 4.0 16 ------- null}
r -t 0.358256 -s 4 -d 5 -p ack -e 40 -c 1 -i 25 -a 1 -x {4.0 0.0 10 ------- null}
+ -t 0.358256 -s 5 -d 0 -p ack -e 40 -c 1 -i 25 -a 1 -x {4.0 0.0 10 ------- null}
- -t 0.358256 -s 5 -d 0 -p ack -e 40 -c 1 -i 25 -a 1 -x {4.0 0.0 10 ------- null}
h -t 0.358256 -s 5 -d 0 -p ack -e 40 -c 1 -i 25 -a 1 -x {4.0 0.0 -1 ------- null}
r -t 0.360096 -s 5 -d 0 -p ack -e 40 -c 1 -i 23 -a 1 -x {4.0 0.0 8 ------- null}
+ -t 0.360096 -s 0 -d 5 -p tcp -e 1040 -c 1 -i 32 -a 1 -x {0.0 4.0 17 ------- null}
+ -t 0.360096 -s 0 -d 5 -p tcp -e 1040 -c 1 -i 33 -a 1 -x {0.0 4.0 18 ------- null}
- -t 0.360096 -s 0 -d 5 -p tcp -e 1040 -c 1 -i 31 -a 1 -x {0.0 4.0 16 ------- null}
h -t 0.360096 -s 0 -d 5 -p tcp -e 1040 -c 1 -i 31 -a 1 -x {0.0 4.0 -1 ------- null}
r -t 0.362416 -s 4 -d 5 -p ack -e 40 -c 1 -i 26 -a 1 -x {4.0 0.0 11 ------- null}
+ -t 0.362416 -s 5 -d 0 -p ack -e 40 -c 1 -i 26 -a 1 -x {4.0 0.0 11 ------- null}
- -t 0.362416 -s 5 -d 0 -p ack -e 40 -c 1 -i 26 -a 1 -x {4.0 0.0 11 ------- null}
h -t 0.362416 -s 5 -d 0 -p ack -e 40 -c 1 -i 26 -a 1 -x {4.0 0.0 -1 ------- null}
r -t 0.364256 -s 5 -d 0 -p ack -e 40 -c 1 -i 24 -a 1 -x {4.0 0.0 9 ------- null}
+ -t 0.364256 -s 0 -d 5 -p tcp -e 1040 -c 1 -i 34 -a 1 -x {0.0 4.0 19 ------- null}
+ -t 0.364256 -s 0 -d 5 -p tcp -e 1040 -c 1 -i 35 -a 1 -x {0.0 4.0 20 ------- null}
- -t 0.364256 -s 0 -d 5 -p tcp -e 1040 -c 1 -i 32 -a 1 -x {0.0 4.0 17 ------- null}
h -t 0.364256 -s 0 -d 5 -p tcp -e 1040 -c 1 -i 32 -a 1 -x {0.0 4.0 -1 ------- null}
r -t 0.366576 -s 4 -d 5 -p ack -e 40 -c 1 -i 27 -a 1 -x {4.0 0.0 12 ------- null}
+ -t 0.366576 -s 5 -d 0 -p ack -e 40 -c 1 -i 27 -a 1 -x {4.0 0.0 12 ------- null}
- -t 0.366576 -s 5 -d 0 -p ack -e 40 -c 1 -i 27 -a 1 -x {4.0 0.0 12 ------- null}
h -t 0.366576 -s 5 -d 0 -p ack -e 40 -c 1 -i 27 -a 1 -x {4.0 0.0 -1 ------- null}
r -t 0.368416 -s 5 -d 0 -p ack -e 40 -c 1 -i 25 -a 1 -x {4.0 0.0 10 ------- null}
+ -t 0.368416 -s 0 -d 5 -p tcp -e 1040 -c 1 -i 36 -a 1 -x {0.0 4.0 21 ------- null}
+ -t 0.368416 -s 0 -d 5 -p tcp -e 1040 -c 1 -i 37 -a 1 -x {0.0 4.0 22 ------- null}
- -t 0.368416 -s 0 -d 5 -p tcp -e 1040 -c 1 -i 33 -a 1 -x {0.0 4.0 18 ------- null}
h -t 0.368416 -s 0 -d 5 -p tcp -e 1040 -c 1 -i 33 -a 1 -x {0.0 4.0 -1 ------- null}
r -t 0.370096 -s 0 -d 5 -p tcp -e 1040 -c 1 -i 30 -a 1 -x {0.0 4.0 15 ------- null}
+ -t 0.370096 -s 5 -d 4 -p tcp -e 1040 -c 1 -i 30 -a 1 -x {0.0 4.0 15 ------- null}
- -t 0.370096 -s 5 -d 4 -p tcp -e 1040 -c 1 -i 30 -a 1 -x {0.0 4.0 15 ------- null}
h -t 0.370096 -s 5 -d 4 -p tcp -e 1040 -c 1 -i 30 -a 1 -x {0.0 4.0 -1 ------- null}
r -t 0.370736 -s 4 -d 5 -p ack -e 40 -c 1 -i 28 -a 1 -x {4.0 0.0 13 ------- null}
+ -t 0.370736 -s 5 -d 0 -p ack -e 40 -c 1 -i 28 -a 1 -x {4.0 0.0 13 ------- null}
- -t 0.370736 -s 5 -d 0 -p ack -e 40 -c 1 -i 28 -a 1 -x {4.0 0.0 13 ------- null}
h -t 0.370736 -s 5 -d 0 -p ack -e 40 -c 1 -i 28 -a 1 -x {4.0 0.0 -1 ------- null}
r -t 0.372576 -s 5 -d 0 -p ack -e 40 -c 1 -i 26 -a 1 -x {4.0 0.0 11 ------- null}
+ -t 0.372576 -s 0 -d 5 -p tcp -e 1040 -c 1 -i 38 -a 1 -x {0.0 4.0 23 ------- null}
+ -t 0.372576 -s 0 -d 5 -p tcp -e 1040 -c 1 -i 39 -a 1 -x {0.0 4.0 24 ------- null}
- -t 0.372576 -s 0 -d 5 -p tcp -e 1040 -c 1 -i 34 -a 1 -x {0.0 4.0 19 ------- null}
h -t 0.372576 -s 0 -d 5 -p tcp -e 1040 -c 1 -i 34 -a 1 -x {0.0 4.0 -1 ------- null}
r -t 0.374256 -s 0 -d 5 -p tcp -e 1040 -c 1 -i 31 -a 1 -x {0.0 4.0 16 ------- null}
+ -t 0.374256 -s 5 -d 4 -p tcp -e 1040 -c 1 -i 31 -a 1 -x {0.0 4.0 16 ------- null}
- -t 0.374256 -s 5 -d 4 -p tcp -e 1040 -c 1 -i 31 -a 1 -x {0.0 4.0 16 ------- null}
h -t 0.374256 -s 5 -d 4 -p tcp -e 1040 -c 1 -i 31 -a 1 -x {0.0 4.0 -1 ------- null}
r -t 0.374896 -s 4 -d 5 -p ack -e 40 -c 1 -i 29 -a 1 -x {4.0 0.0 14 ------- null}
+ -t 0.374896 -s 5 -d 0 -p ack -e 40 -c 1 -i 29 -a 1 -x {4.0 0.0 14 ------- null}
- -t 0.374896 -s 5 -d 0 -p ack -e 40 -c 1 -i 29 -a 1 -x {4.0 0.0 14 ------- null}
h -t 0.374896 -s 5 -d 0 -p ack -e 40 -c 1 -i 29 -a 1 -x {4.0 0.0 -1 ------- null}
r -t 0.376736 -s 5 -d 0 -p ack -e 40 -c 1 -i 27 -a 1 -x {4.0 0.0 12 ------- null}
+ -t 0.376736 -s 0 -d 5 -p tcp -e 1040 -c 1 -i 40 -a 1 -x {0.0 4.0 25 ------- null}
+ -t 0.376736 -s 0 -d 5 -p tcp -e 1040 -c 1 -i 41 -a 1 -x {0.0 4.0 26 ------- null}
- -t 0.376736 -s 0 -d 5 -p tcp -e 1040 -c 1 -i 35 -a 1 -x {0.0 4.0 20 ------- null}
h -t 0.376736 -s 0 -d 5 -p tcp -e 1040 -c 1 -i 35 -a 1 -x {0.0 4.0 -1 ------- null}
r -t 0.378416 -s 0 -d 5 -p tcp -e 1040 -c 1 -i 32 -a 1 -x {0.0 4.0 17 ------- null}
+ -t 0.378416 -s 5 -d 4 -p tcp -e 1040 -c 1 -i 32 -a 1 -x {0.0 4.0 17 ------- null}
- -t 0.378416 -s 5 -d 4 -p tcp -e 1040 -c 1 -i 32 -a 1 -x {0.0 4.0 17 ------- null}
h -t 0.378416 -s 5 -d 4 -p tcp -e 1040 -c 1 -i 32 -a 1 -x {0.0 4.0 -1 ------- null}
r -t 0.380896 -s 5 -d 0 -p ack -e 40 -c 1 -i 28 -a 1 -x {4.0 0.0 13 ------- null}
+ -t 0.380896 -s 0 -d 5 -p tcp -e 1040 -c 1 -i 42 -a 1 -x {0.0 4.0 27 ------- null}
+ -t 0.380896 -s 0 -d 5 -p tcp -e 1040 -c 1 -i 43 -a 1 -x {0.0 4.0 28 ------- null}
- -t 0.380896 -s 0 -d 5 -p tcp -e 1040 -c 1 -i 36 -a 1 -x {0.0 4.0 21 ------- null}
h -t 0.380896 -s 0 -d 5 -p tcp -e 1040 -c 1 -i 36 -a 1 -x {0.0 4.0 -1 ------- null}
r -t 0.382576 -s 0 -d 5 -p tcp -e 1040 -c 1 -i 33 -a 1 -x {0.0 4.0 18 ------- null}
+ -t 0.382576 -s 5 -d 4 -p tcp -e 1040 -c 1 -i 33 -a 1 -x {0.0 4.0 18 ------- null}
- -t 0.382576 -s 5 -d 4 -p tcp -e 1040 -c 1 -i 33 -a 1 -x {0.0 4.0 18 ------- null}
h -t 0.382576 -s 5 -d 4 -p tcp -e 1040 -c 1 -i 33 -a 1 -x {0.0 4.0 -1 ------- null}
r -t 0.385056 -s 5 -d 0 -p ack -e 40 -c 1 -i 29 -a 1 -x {4.0 0.0 14 ------- null}
+ -t 0.385056 -s 0 -d 5 -p tcp -e 1040 -c 1 -i 44 -a 1 -x {0.0 4.0 29 ------- null}
+ -t 0.385056 -s 0 -d 5 -p tcp -e 1040 -c 1 -i 45 -a 1 -x {0.0 4.0 30 ------- null}
- -t 0.385056 -s 0 -d 5 -p tcp -e 1040 -c 1 -i 37 -a 1 -x {0.0 4.0 22 ------- null}
h -t 0.385056 -s 0 -d 5 -p tcp -e 1040 -c 1 -i 37 -a 1 -x {0.0 4.0 -1 ------- null}
r -t 0.386736 -s 0 -d 5 -p tcp -e 1040 -c 1 -i 34 -a 1 -x {0.0 4.0 19 ------- null}
+ -t 0.386736 -s 5 -d 4 -p tcp -e 1040 -c 1 -i 34 -a 1 -x {0.0 4.0 19 ------- null}
- -t 0.386736 -s 5 -d 4 -p tcp -e 1040 -c 1 -i 34 -a 1 -x {0.0 4.0 19 ------- null}
h -t 0.386736 -s 5 -d 4 -p tcp -e 1040 -c 1 -i 34 -a 1 -x {0.0 4.0 -1 ------- null}
- -t 0.389216 -s 0 -d 5 -p tcp -e 1040 -c 1 -i 38 -a 1 -x {0.0 4.0 23 ------- null}
h -t 0.389216 -s 0 -d 5 -p tcp -e 1040 -c 1 -i 38 -a 1 -x {0.0 4.0 -1 ------- null}
r -t 0.390896 -s 0 -d 5 -p tcp -e 1040 -c 1 -i 35 -a 1 -x {0.0 4.0 20 ------- null}
+ -t 0.390896 -s 5 -d 4 -p tcp -e 1040 -c 1 -i 35 -a 1 -x {0.0 4.0 20 ------- null}
- -t 0.390896 -s 5 -d 4 -p tcp -e 1040 -c 1 -i 35 -a 1 -x {0.0 4.0 20 ------- null}
h -t 0.390896 -s 5 -d 4 -p tcp -e 1040 -c 1 -i 35 -a 1 -x {0.0 4.0 -1 ------- null}
r -t 0.390928 -s 5 -d 4 -p tcp -e 1040 -c 1 -i 30 -a 1 -x {0.0 4.0 15 ------- null}
+ -t 0.390928 -s 4 -d 5 -p ack -e 40 -c 1 -i 46 -a 1 -x {4.0 0.0 15 ------- null}
- -t 0.390928 -s 4 -d 5 -p ack -e 40 -c 1 -i 46 -a 1 -x {4.0 0.0 15 ------- null}
h -t 0.390928 -s 4 -d 5 -p ack -e 40 -c 1 -i 46 -a 1 -x {4.0 0.0 -1 ------- null}
- -t 0.393376 -s 0 -d 5 -p tcp -e 1040 -c 1 -i 39 -a 1 -x {0.0 4.0 24 ------- null}
h -t 0.393376 -s 0 -d 5 -p tcp -e 1040 -c 1 -i 39 -a 1 -x {0.0 4.0 -1 ------- null}
r -t 0.395056 -s 0 -d 5 -p tcp -e 1040 -c 1 -i 36 -a 1 -x {0.0 4.0 21 ------- null}
+ -t 0.395056 -s 5 -d 4 -p tcp -e 1040 -c 1 -i 36 -a 1 -x {0.0 4.0 21 ------- null}
- -t 0.395056 -s 5 -d 4 -p tcp -e 1040 -c 1 -i 36 -a 1 -x {0.0 4.0 21 ------- null}
h -t 0.395056 -s 5 -d 4 -p tcp -e 1040 -c 1 -i 36 -a 1 -x {0.0 4.0 -1 ------- null}
r -t 0.395088 -s 5 -d 4 -p tcp -e 1040 -c 1 -i 31 -a 1 -x {0.0 4.0 16 ------- null}
+ -t 0.395088 -s 4 -d 5 -p ack -e 40 -c 1 -i 47 -a 1 -x {4.0 0.0 16 ------- null}
- -t 0.395088 -s 4 -d 5 -p ack -e 40 -c 1 -i 47 -a 1 -x {4.0 0.0 16 ------- null}
h -t 0.395088 -s 4 -d 5 -p ack -e 40 -c 1 -i 47 -a 1 -x {4.0 0.0 -1 ------- null}
- -t 0.397536 -s 0 -d 5 -p tcp -e 1040 -c 1 -i 40 -a 1 -x {0.0 4.0 25 ------- null}
h -t 0.397536 -s 0 -d 5 -p tcp -e 1040 -c 1 -i 40 -a 1 -x {0.0 4.0 -1 ------- null}
r -t 0.399216 -s 0 -d 5 -p tcp -e 1040 -c 1 -i 37 -a 1 -x {0.0 4.0 22 ------- null}
+ -t 0.399216 -s 5 -d 4 -p tcp -e 1040 -c 1 -i 37 -a 1 -x {0.0 4.0 22 ------- null}
- -t 0.399216 -s 5 -d 4 -p tcp -e 1040 -c 1 -i 37 -a 1 -x {0.0 4.0 22 ------- null}
h -t 0.399216 -s 5 -d 4 -p tcp -e 1040 -c 1 -i 37 -a 1 -x {0.0 4.0 -1 ------- null}
r -t 0.399248 -s 5 -d 4 -p tcp -e 1040 -c 1 -i 32 -a 1 -x {0.0 4.0 17 ------- null}
+ -t 0.399248 -s 4 -d 5 -p ack -e 40 -c 1 -i 48 -a 1 -x {4.0 0.0 17 ------- null}
- -t 0.399248 -s 4 -d 5 -p ack -e 40 -c 1 -i 48 -a 1 -x {4.0 0.0 17 ------- null}
h -t 0.399248 -s 4 -d 5 -p ack -e 40 -c 1 -i 48 -a 1 -x {4.0 0.0 -1 ------- null}
- -t 0.401696 -s 0 -d 5 -p tcp -e 1040 -c 1 -i 41 -a 1 -x {0.0 4.0 26 ------- null}
h -t 0.401696 -s 0 -d 5 -p tcp -e 1040 -c 1 -i 41 -a 1 -x {0.0 4.0 -1 ------- null}
r -t 0.403376 -s 0 -d 5 -p tcp -e 1040 -c 1 -i 38 -a 1 -x {0.0 4.0 23 ------- null}
+ -t 0.403376 -s 5 -d 4 -p tcp -e 1040 -c 1 -i 38 -a 1 -x {0.0 4.0 23 ------- null}
- -t 0.403376 -s 5 -d 4 -p tcp -e 1040 -c 1 -i 38 -a 1 -x {0.0 4.0 23 ------- null}
h -t 0.403376 -s 5 -d 4 -p tcp -e 1040 -c 1 -i 38 -a 1 -x {0.0 4.0 -1 ------- null}
r -t 0.403408 -s 5 -d 4 -p tcp -e 1040 -c 1 -i 33 -a 1 -x {0.0 4.0 18 ------- null}
+ -t 0.403408 -s 4 -d 5 -p ack -e 40 -c 1 -i 49 -a 1 -x {4.0 0.0 18 ------- null}
- -t 0.403408 -s 4 -d 5 -p ack -e 40 -c 1 -i 49 -a 1 -x {4.0 0.0 18 ------- null}
h -t 0.403408 -s 4 -d 5 -p ack -e 40 -c 1 -i 49 -a 1 -x {4.0 0.0 -1 ------- null}
- -t 0.405856 -s 0 -d 5 -p tcp -e 1040 -c 1 -i 42 -a 1 -x {0.0 4.0 27 ------- null}
h -t 0.405856 -s 0 -d 5 -p tcp -e 1040 -c 1 -i 42 -a 1 -x {0.0 4.0 -1 ------- null}
r -t 0.407536 -s 0 -d 5 -p tcp -e 1040 -c 1 -i 39 -a 1 -x {0.0 4.0 24 ------- null}
+ -t 0.407536 -s 5 -d 4 -p tcp -e 1040 -c 1 -i 39 -a 1 -x {0.0 4.0 24 ------- null}
- -t 0.407536 -s 5 -d 4 -p tcp -e 1040 -c 1 -i 39 -a 1 -x {0.0 4.0 24 ------- null}
h -t 0.407536 -s 5 -d 4 -p tcp -e 1040 -c 1 -i 39 -a 1 -x {0.0 4.0 -1 ------- null}
r -t 0.407568 -s 5 -d 4 -p tcp -e 1040 -c 1 -i 34 -a 1 -x {0.0 4.0 19 ------- null}
+ -t 0.407568 -s 4 -d 5 -p ack -e 40 -c 1 -i 50 -a 1 -x {4.0 0.0 19 ------- null}
- -t 0.407568 -s 4 -d 5 -p ack -e 40 -c 1 -i 50 -a 1 -x {4.0 0.0 19 ------- null}
h -t 0.407568 -s 4 -d 5 -p ack -e 40 -c 1 -i 50 -a 1 -x {4.0 0.0 -1 ------- null}
- -t 0.410016 -s 0 -d 5 -p tcp -e 1040 -c 1 -i 43 -a 1 -x {0.0 4.0 28 ------- null}
h -t 0.410016 -s 0 -d 5 -p tcp -e 1040 -c 1 -i 43 -a 1 -x {0.0 4.0 -1 ------- null}
r -t 0.41096 -s 4 -d 5 -p ack -e 40 -c 1 -i 46 -a 1 -x {4.0 0.0 15 ------- null}
+ -t 0.41096 -s 5 -d 0 -p ack -e 40 -c 1 -i 46 -a 1 -x {4.0 0.0 15 ------- null}
- -t 0.41096 -s 5 -d 0 -p ack -e 40 -c 1 -i 46 -a 1 -x {4.0 0.0 15 ------- null}
h -t 0.41096 -s 5 -d 0 -p ack -e 40 -c 1 -i 46 -a 1 -x {4.0 0.0 -1 ------- null}
r -t 0.411696 -s 0 -d 5 -p tcp -e 1040 -c 1 -i 40 -a 1 -x {0.0 4.0 25 ------- null}
+ -t 0.411696 -s 5 -d 4 -p tcp -e 1040 -c 1 -i 40 -a 1 -x {0.0 4.0 25 ------- null}