V -t * -v 1.0a5 -a 0
A -t * -n 1 -p 0 -o 0x7fffffff -c 30 -a 1
A -t * -h 1 -m 1073741823 -s 0
c -t * -i 0 -n #A318DF
c -t * -i 1 -n #7C58FB
c -t * -i 2 -n #B03136
c -t * -i 3 -n #954EB5
n -t * -a 4 -s 4 -S UP -v circle -c black -i black
n -t * -a 0 -s 0 -S UP -v circle -c black -i black
n -t * -a 5 -s 5 -S UP -v circle -c black -i black
n -t * -a 1 -s 1 -S UP -v circle -c black -i black
n -t * -a 6 -s 6 -S UP -v circle -c black -i black
n -t * -a 2 -s 2 -S UP -v circle -c black -i black
n -t * -a 7 -s 7 -S UP -v circle -c black -i black
n -t * -a 3 -s 3 -S UP -v circle -c black -i black
l -t * -s 1 -d 0 -S UP -r 1000000 -D 0.01 -c black
l -t * -s 2 -d 0 -S UP -r 1000000 -D 0.01 -c black
l -t * -s 3 -d 1 -S UP -r 1000000 -D 0.01 -c black
l -t * -s 3 -d 2 -S UP -r 1000000 -D 0.01 -c black
l -t * -s 4 -d 0 -S UP -r 1000000 -D 0.01 -c black
l -t * -s 5 -d 1 -S UP -r 1000000 -D 0.01 -c black
l -t * -s 5 -d 4 -S UP -r 1000000 -D 0.01 -c black
l -t * -s 6 -d 2 -S UP -r 1000000 -D 0.01 -c black
l -t * -s 6 -d 4 -S UP -r 1000000 -D 0.01 -c black
l -t * -s 7 -d 3 -S UP -r 1000000 -D 0.01 -c black
l -t * -s 7 -d 5 -S UP -r 1000000 -D 0.01 -c black
l -t * -s 7 -d 6 -S UP -r 1000000 -D 0.01 -c black
+ -t 6 -s 6 -d 4 -p tcp -e 40 -c 0 -i 0 -a 0 -x {6.0 4.0 0 ------- null}
- -t 6 -s 6 -d 4 -p tcp -e 40 -c 0 -i 0 -a 0 -x {6.0 4.0 0 ------- null}
h -t 6 -s 6 -d 4 -p tcp -e 40 -c 0 -i 0 -a 0 -x {6.0 4.0 -1 ------- null}
+ -t 6 -s 6 -d 4 -p tcp -e 40 -c 2 -i 1 -a 2 -x {6.1 5.0 0 ------- null}
- -t 6.00032 -s 6 -d 4 -p tcp -e 40 -c 2 -i 1 -a 2 -x {6.1 5.0 0 ------- null}
h -t 6.00032 -s 6 -d 4 -p tcp -e 40 -c 2 -i 1 -a 2 -x {6.1 5.0 -1 ------- null}
r -t 6.01032 -s 6 -d 4 -p tcp -e 40 -c 0 -i 0 -a 0 -x {6.0 4.0 0 ------- null}
+ -t 6.01032 -s 4 -d 6 -p ack -e 40 -c 0 -i 2 -a 0 -x {4.0 6.0 0 ------- null}
- -t 6.01032 -s 4 -d 6 -p ack -e 40 -c 0 -i 2 -a 0 -x {4.0 6.0 0 ------- null}
h -t 6.01032 -s 4 -d 6 -p ack -e 40 -c 0 -i 2 -a 0 -x {4.0 6.0 -1 ------- null}
r -t 6.01064 -s 6 -d 4 -p tcp -e 40 -c 2 -i 1 -a 2 -x {6.1 5.0 0 ------- null}
+ -t 6.01064 -s 4 -d 5 -p tcp -e 40 -c 2 -i 1 -a 2 -x {6.1 5.0 0 ------- null}
- -t 6.01064 -s 4 -d 5 -p tcp -e 40 -c 2 -i 1 -a 2 -x {6.1 5.0 0 ------- null}
h -t 6.01064 -s 4 -d 5 -p tcp -e 40 -c 2 -i 1 -a 2 -x {6.1 5.0 -1 ------- null}
r -t 6.02064 -s 4 -d 6 -p ack -e 40 -c 0 -i 2 -a 0 -x {4.0 6.0 0 ------- null}
+ -t 6.02064 -s 6 -d 4 -p tcp -e 1040 -c 0 -i 3 -a 0 -x {6.0 4.0 1 ------- null}
- -t 6.02064 -s 6 -d 4 -p tcp -e 1040 -c 0 -i 3 -a 0 -x {6.0 4.0 1 ------- null}
h -t 6.02064 -s 6 -d 4 -p tcp -e 1040 -c 0 -i 3 -a 0 -x {6.0 4.0 -1 ------- null}
+ -t 6.02064 -s 6 -d 4 -p tcp -e 1040 -c 0 -i 4 -a 0 -x {6.0 4.0 2 ------- null}
r -t 6.02096 -s 4 -d 5 -p tcp -e 40 -c 2 -i 1 -a 2 -x {6.1 5.0 0 ------- null}
+ -t 6.02096 -s 5 -d 4 -p ack -e 40 -c 2 -i 5 -a 2 -x {5.0 6.1 0 ------- null}
- -t 6.02096 -s 5 -d 4 -p ack -e 40 -c 2 -i 5 -a 2 -x {5.0 6.1 0 ------- null}
h -t 6.02096 -s 5 -d 4 -p ack -e 40 -c 2 -i 5 -a 2 -x {5.0 6.1 -1 ------- null}
- -t 6.02896 -s 6 -d 4 -p tcp -e 1040 -c 0 -i 4 -a 0 -x {6.0 4.0 2 ------- null}
h -t 6.02896 -s 6 -d 4 -p tcp -e 1040 -c 0 -i 4 -a 0 -x {6.0 4.0 -1 ------- null}
r -t 6.03128 -s 5 -d 4 -p ack -e 40 -c 2 -i 5 -a 2 -x {5.0 6.1 0 ------- null}
+ -t 6.03128 -s 4 -d 6 -p ack -e 40 -c 2 -i 5 -a 2 -x {5.0 6.1 0 ------- null}
- -t 6.03128 -s 4 -d 6 -p ack -e 40 -c 2 -i 5 -a 2 -x {5.0 6.1 0 ------- null}
h -t 6.03128 -s 4 -d 6 -p ack -e 40 -c 2 -i 5 -a 2 -x {5.0 6.1 -1 ------- null}
r -t 6.03896 -s 6 -d 4 -p tcp -e 1040 -c 0 -i 3 -a 0 -x {6.0 4.0 1 ------- null}
+ -t 6.03896 -s 4 -d 6 -p ack -e 40 -c 0 -i 6 -a 0 -x {4.0 6.0 1 ------- null}
- -t 6.03896 -s 4 -d 6 -p ack -e 40 -c 0 -i 6 -a 0 -x {4.0 6.0 1 ------- null}
h -t 6.03896 -s 4 -d 6 -p ack -e 40 -c 0 -i 6 -a 0 -x {4.0 6.0 -1 ------- null}
r -t 6.0416 -s 4 -d 6 -p ack -e 40 -c 2 -i 5 -a 2 -x {5.0 6.1 0 ------- null}
+ -t 6.0416 -s 6 -d 4 -p tcp -e 1040 -c 2 -i 7 -a 2 -x {6.1 5.0 1 ------- null}
- -t 6.0416 -s 6 -d 4 -p tcp -e 1040 -c 2 -i 7 -a 2 -x {6.1 5.0 1 ------- null}
h -t 6.0416 -s 6 -d 4 -p tcp -e 1040 -c 2 -i 7 -a 2 -x {6.1 5.0 -1 ------- null}
+ -t 6.0416 -s 6 -d 4 -p tcp -e 1040 -c 2 -i 8 -a 2 -x {6.1 5.0 2 ------- null}
r -t 6.04728 -s 6 -d 4 -p tcp -e 1040 -c 0 -i 4 -a 0 -x {6.0 4.0 2 ------- null}
+ -t 6.04728 -s 4 -d 6 -p ack -e 40 -c 0 -i 9 -a 0 -x {4.0 6.0 2 ------- null}
- -t 6.04728 -s 4 -d 6 -p ack -e 40 -c 0 -i 9 -a 0 -x {4.0 6.0 2 ------- null}
h -t 6.04728 -s 4 -d 6 -p ack -e 40 -c 0 -i 9 -a 0 -x {4.0 6.0 -1 ------- null}
r -t 6.04928 -s 4 -d 6 -p ack -e 40 -c 0 -i 6 -a 0 -x {4.0 6.0 1 ------- null}
+ -t 6.04928 -s 6 -d 4 -p tcp -e 1040 -c 0 -i 10 -a 0 -x {6.0 4.0 3 ------- null}
+ -t 6.04928 -s 6 -d 4 -p tcp -e 1040 -c 0 -i 11 -a 0 -x {6.0 4.0 4 ------- null}
- -t 6.04992 -s 6 -d 4 -p tcp -e 1040 -c 2 -i 8 -a 2 -x {6.1 5.0 2 ------- null}
h -t 6.04992 -s 6 -d 4 -p tcp -e 1040 -c 2 -i 8 -a 2 -x {6.1 5.0 -1 ------- null}
r -t 6.0576 -s 4 -d 6 -p ack -e 40 -c 0 -i 9 -a 0 -x {4.0 6.0 2 ------- null}
+ -t 6.0576 -s 6 -d 4 -p tcp -e 1040 -c 0 -i 12 -a 0 -x {6.0 4.0 5 ------- null}
+ -t 6.0576 -s 6 -d 4 -p tcp -e 1040 -c 0 -i 13 -a 0 -x {6.0 4.0 6 ------- null}
- -t 6.05824 -s 6 -d 4 -p tcp -e 1040 -c 0 -i 10 -a 0 -x {6.0 4.0 3 ------- null}
h -t 6.05824 -s 6 -d 4 -p tcp -e 1040 -c 0 -i 10 -a 0 -x {6.0 4.0 -1 ------- null}
r -t 6.05992 -s 6 -d 4 -p tcp -e 1040 -c 2 -i 7 -a 2 -x {6.1 5.0 1 ------- null}
+ -t 6.05992 -s 4 -d 5 -p tcp -e 1040 -c 2 -i 7 -a 2 -x {6.1 5.0 1 ------- null}
- -t 6.05992 -s 4 -d 5 -p tcp -e 1040 -c 2 -i 7 -a 2 -x {6.1 5.0 1 ------- null}
h -t 6.05992 -s 4 -d 5 -p tcp -e 1040 -c 2 -i 7 -a 2 -x {6.1 5.0 -1 ------- null}
- -t 6.06656 -s 6 -d 4 -p tcp -e 1040 -c 0 -i 11 -a 0 -x {6.0 4.0 4 ------- null}
h -t 6.06656 -s 6 -d 4 -p tcp -e 1040 -c 0 -i 11 -a 0 -x {6.0 4.0 -1 ------- null}
r -t 6.06824 -s 6 -d 4 -p tcp -e 1040 -c 2 -i 8 -a 2 -x {6.1 5.0 2 ------- null}
+ -t 6.06824 -s 4 -d 5 -p tcp -e 1040 -c 2 -i 8 -a 2 -x {6.1 5.0 2 ------- null}
- -t 6.06824 -s 4 -d 5 -p tcp -e 1040 -c 2 -i 8 -a 2 -x {6.1 5.0 2 ------- null}
h -t 6.06824 -s 4 -d 5 -p tcp -e 1040 -c 2 -i 8 -a 2 -x {6.1 5.0 -1 ------- null}
- -t 6.07488 -s 6 -d 4 -p tcp -e 1040 -c 0 -i 12 -a 0 -x {6.0 4.0 5 ------- null}
h -t 6.07488 -s 6 -d 4 -p tcp -e 1040 -c 0 -i 12 -a 0 -x {6.0 4.0 -1 ------- null}
r -t 6.07656 -s 6 -d 4 -p tcp -e 1040 -c 0 -i 10 -a 0 -x {6.0 4.0 3 ------- null}
+ -t 6.07656 -s 4 -d 6 -p ack -e 40 -c 0 -i 14 -a 0 -x {4.0 6.0 3 ------- null}
- -t 6.07656 -s 4 -d 6 -p ack -e 40 -c 0 -i 14 -a 0 -x {4.0 6.0 3 ------- null}
h -t 6.07656 -s 4 -d 6 -p ack -e 40 -c 0 -i 14 -a 0 -x {4.0 6.0 -1 ------- null}
r -t 6.07824 -s 4 -d 5 -p tcp -e 1040 -c 2 -i 7 -a 2 -x {6.1 5.0 1 ------- null}
+ -t 6.07824 -s 5 -d 4 -p ack -e 40 -c 2 -i 15 -a 2 -x {5.0 6.1 1 ------- null}
- -t 6.07824 -s 5 -d 4 -p ack -e 40 -c 2 -i 15 -a 2 -x {5.0 6.1 1 ------- null}
h -t 6.07824 -s 5 -d 4 -p ack -e 40 -c 2 -i 15 -a 2 -x {5.0 6.1 -1 ------- null}
- -t 6.0832 -s 6 -d 4 -p tcp -e 1040 -c 0 -i 13 -a 0 -x {6.0 4.0 6 ------- null}
h -t 6.0832 -s 6 -d 4 -p tcp -e 1040 -c 0 -i 13 -a 0 -x {6.0 4.0 -1 ------- null}
r -t 6.08488 -s 6 -d 4 -p tcp -e 1040 -c 0 -i 11 -a 0 -x {6.0 4.0 4 ------- null}
+ -t 6.08488 -s 4 -d 6 -p ack -e 40 -c 0 -i 16 -a 0 -x {4.0 6.0 4 ------- null}
- -t 6.08488 -s 4 -d 6 -p ack -e 40 -c 0 -i 16 -a 0 -x {4.0 6.0 4 ------- null}
h -t 6.08488 -s 4 -d 6 -p ack -e 40 -c 0 -i 16 -a 0 -x {4.0 6.0 -1 ------- null}
r -t 6.08656 -s 4 -d 5 -p tcp -e 1040 -c 2 -i 8 -a 2 -x {6.1 5.0 2 ------- null}
+ -t 6.08656 -s 5 -d 4 -p ack -e 40 -c 2 -i 17 -a 2 -x {5.0 6.1 2 ------- null}
- -t 6.08656 -s 5 -d 4 -p ack -e 40 -c 2 -i 17 -a 2 -x {5.0 6.1 2 ------- null}
h -t 6.08656 -s 5 -d 4 -p ack -e 40 -c 2 -i 17 -a 2 -x {5.0 6.1 -1 ------- null}
r -t 6.08688 -s 4 -d 6 -p ack -e 40 -c 0 -i 14 -a 0 -x {4.0 6.0 3 ------- null}
+ -t 6.08688 -s 6 -d 4 -p tcp -e 1040 -c 0 -i 18 -a 0 -x {6.0 4.0 7 ------- null}
+ -t 6.08688 -s 6 -d 4 -p tcp -e 1040 -c 0 -i 19 -a 0 -x {6.0 4.0 8 ------- null}
r -t 6.08856 -s 5 -d 4 -p ack -e 40 -c 2 -i 15 -a 2 -x {5.0 6.1 1 ------- null}
+ -t 6.08856 -s 4 -d 6 -p ack -e 40 -c 2 -i 15 -a 2 -x {5.0 6.1 1 ------- null}
- -t 6.08856 -s 4 -d 6 -p ack -e 40 -c 2 -i 15 -a 2 -x {5.0 6.1 1 ------- null}
h -t 6.08856 -s 4 -d 6 -p ack -e 40 -c 2 -i 15 -a 2 -x {5.0 6.1 -1 ------- null}
- -t 6.09152 -s 6 -d 4 -p tcp -e 1040 -c 0 -i 18 -a 0 -x {6.0 4.0 7 ------- null}
h -t 6.09152 -s 6 -d 4 -p tcp -e 1040 -c 0 -i 18 -a 0 -x {6.0 4.0 -1 ------- null}
r -t 6.0932 -s 6 -d 4 -p tcp -e 1040 -c 0 -i 12 -a 0 -x {6.0 4.0 5 ------- null}
+ -t 6.0932 -s 4 -d 6 -p ack -e 40 -c 0 -i 20 -a 0 -x {4.0 6.0 5 ------- null}
- -t 6.0932 -s 4 -d 6 -p ack -e 40 -c 0 -i 20 -a 0 -x {4.0 6.0 5 ------- null}
h -t 6.0932 -s 4 -d 6 -p ack -e 40 -c 0 -i 20 -a 0 -x {4.0 6.0 -1 ------- null}
r -t 6.0952 -s 4 -d 6 -p ack -e 40 -c 0 -i 16 -a 0 -x {4.0 6.0 4 ------- null}
+ -t 6.0952 -s 6 -d 4 -p tcp -e 1040 -c 0 -i 21 -a 0 -x {6.0 4.0 9 ------- null}
+ -t 6.0952 -s 6 -d 4 -p tcp -e 1040 -c 0 -i 22 -a 0 -x {6.0 4.0 10 ------- null}
r -t 6.09688 -s 5 -d 4 -p ack -e 40 -c 2 -i 17 -a 2 -x {5.0 6.1 2 ------- null}
+ -t 6.09688 -s 4 -d 6 -p ack -e 40 -c 2 -i 17 -a 2 -x {5.0 6.1 2 ------- null}
- -t 6.09688 -s 4 -d 6 -p ack -e 40 -c 2 -i 17 -a 2 -x {5.0 6.1 2 ------- null}
h -t 6.09688 -s 4 -d 6 -p ack -e 40 -c 2 -i 17 -a 2 -x {5.0 6.1 -1 ------- null}
r -t 6.09888 -s 4 -d 6 -p ack -e 40 -c 2 -i 15 -a 2 -x {5.0 6.1 1 ------- null}
+ -t 6.09888 -s 6 -d 4 -p tcp -e 1040 -c 2 -i 23 -a 2 -x {6.1 5.0 3 ------- null}
+ -t 6.09888 -s 6 -d 4 -p tcp -e 1040 -c 2 -i 24 -a 2 -x {6.1 5.0 4 ------- null}
- -t 6.09984 -s 6 -d 4 -p tcp -e 1040 -c 0 -i 19 -a 0 -x {6.0 4.0 8 ------- null}
h -t 6.09984 -s 6 -d 4 -p tcp -e 1040 -c 0 -i 19 -a 0 -x {6.0 4.0 -1 ------- null}
r -t 6.10152 -s 6 -d 4 -p tcp -e 1040 -c 0 -i 13 -a 0 -x {6.0 4.0 6 ------- null}
+ -t 6.10152 -s 4 -d 6 -p ack -e 40 -c 0 -i 25 -a 0 -x {4.0 6.0 6 ------- null}
- -t 6.10152 -s 4 -d 6 -p ack -e 40 -c 0 -i 25 -a 0 -x {4.0 6.0 6 ------- null}
h -t 6.10152 -s 4 -d 6 -p ack -e 40 -c 0 -i 25 -a 0 -x {4.0 6.0 -1 ------- null}
r -t 6.10352 -s 4 -d 6 -p ack -e 40 -c 0 -i 20 -a 0 -x {4.0 6.0 5 ------- null}
+ -t 6.10352 -s 6 -d 4 -p tcp -e 1040 -c 0 -i 26 -a 0 -x {6.0 4.0 11 ------- null}
+ -t 6.10352 -s 6 -d 4 -p tcp -e 1040 -c 0 -i 27 -a 0 -x {6.0 4.0 12 ------- null}
r -t 6.1072 -s 4 -d 6 -p ack -e 40 -c 2 -i 17 -a 2 -x {5.0 6.1 2 ------- null}
+ -t 6.1072 -s 6 -d 4 -p tcp -e 1040 -c 2 -i 28 -a 2 -x {6.1 5.0 5 ------- null}
+ -t 6.1072 -s 6 -d 4 -p tcp -e 1040 -c 2 -i 29 -a 2 -x {6.1 5.0 6 ------- null}
- -t 6.10816 -s 6 -d 4 -p tcp -e 1040 -c 0 -i 21 -a 0 -x {6.0 4.0 9 ------- null}
h -t 6.10816 -s 6 -d 4 -p tcp -e 1040 -c 0 -i 21 -a 0 -x {6.0 4.0 -1 ------- null}
r -t 6.10984 -s 6 -d 4 -p tcp -e 1040 -c 0 -i 18 -a 0 -x {6.0 4.0 7 ------- null}
+ -t 6.10984 -s 4 -d 6 -p ack -e 40 -c 0 -i 30 -a 0 -x {4.0 6.0 7 ------- null}
- -t 6.10984 -s 4 -d 6 -p ack -e 40 -c 0 -i 30 -a 0 -x {4.0 6.0 7 ------- null}
h -t 6.10984 -s 4 -d 6 -p ack -e 40 -c 0 -i 30 -a 0 -x {4.0 6.0 -1 ------- null}
r -t 6.11184 -s 4 -d 6 -p ack -e 40 -c 0 -i 25 -a 0 -x {4.0 6.0 6 ------- null}
+ -t 6.11184 -s 6 -d 4 -p tcp -e 1040 -c 0 -i 31 -a 0 -x {6.0 4.0 13 ------- null}
+ -t 6.11184 -s 6 -d 4 -p tcp -e 1040 -c 0 -i 32 -a 0 -x {6.0 4.0 14 ------- null}
- -t 6.11648 -s 6 -d 4 -p tcp -e 1040 -c 0 -i 22 -a 0 -x {6.0 4.0 10 ------- null}
h -t 6.11648 -s 6 -d 4 -p tcp -e 1040 -c 0 -i 22 -a 0 -x {6.0 4.0 -1 ------- null}
r -t 6.11816 -s 6 -d 4 -p tcp -e 1040 -c 0 -i 19 -a 0 -x {6.0 4.0 8 ------- null}
+ -t 6.11816 -s 4 -d 6 -p ack -e 40 -c 0 -i 33 -a 0 -x {4.0 6.0 8 ------- null}
- -t 6.11816 -s 4 -d 6 -p ack -e 40 -c 0 -i 33 -a 0 -x {4.0 6.0 8 ------- null}
h -t 6.11816 -s 4 -d 6 -p ack -e 40 -c 0 -i 33 -a 0 -x {4.0 6.0 -1 ------- null}
r -t 6.12016 -s 4 -d 6 -p ack -e 40 -c 0 -i 30 -a 0 -x {4.0 6.0 7 ------- null}
+ -t 6.12016 -s 6 -d 4 -p tcp -e 1040 -c 0 -i 34 -a 0 -x {6.0 4.0 15 ------- null}
+ -t 6.12016 -s 6 -d 4 -p tcp -e 1040 -c 0 -i 35 -a 0 -x {6.0 4.0 16 ------- null}
- -t 6.1248 -s 6 -d 4 -p tcp -e 1040 -c 2 -i 23 -a 2 -x {6.1 5.0 3 ------- null}
h -t 6.1248 -s 6 -d 4 -p tcp -e 1040 -c 2 -i 23 -a 2 -x {6.1 5.0 -1 ------- null}
r -t 6.12648 -s 6 -d 4 -p tcp -e 1040 -c 0 -i 21 -a 0 -x {6.0 4.0 9 ------- null}
+ -t 6.12648 -s 4 -d 6 -p ack -e 40 -c 0 -i 36 -a 0 -x {4.0 6.0 9 ------- null}
- -t 6.12648 -s 4 -d 6 -p ack -e 40 -c 0 -i 36 -a 0 -x {4.0 6.0 9 ------- null}
h -t 6.12648 -s 4 -d 6 -p ack -e 40 -c 0 -i 36 -a 0 -x {4.0 6.0 -1 ------- null}
r -t 6.12848 -s 4 -d 6 -p ack -e 40 -c 0 -i 33 -a 0 -x {4.0 6.0 8 ------- null}
+ -t 6.12848 -s 6 -d 4 -p tcp -e 1040 -c 0 -i 37 -a 0 -x {6.0 4.0 17 ------- null}
+ -t 6.12848 -s 6 -d 4 -p tcp -e 1040 -c 0 -i 38 -a 0 -x {6.0 4.0 18 ------- null}
- -t 6.13312 -s 6 -d 4 -p tcp -e 1040 -c 2 -i 24 -a 2 -x {6.1 5.0 4 ------- null}
h -t 6.13312 -s 6 -d 4 -p tcp -e 1040 -c 2 -i 24 -a 2 -x {6.1 5.0 -1 ------- null}
r -t 6.1348 -s 6 -d 4 -p tcp -e 1040 -c 0 -i 22 -a 0 -x {6.0 4.0 10 ------- null}
+ -t 6.1348 -s 4 -d 6 -p ack -e 40 -c 0 -i 39 -a 0 -x {4.0 6.0 10 ------- null}
- -t 6.1348 -s 4 -d 6 -p ack -e 40 -c 0 -i 39 -a 0 -x {4.0 6.0 10 ------- null}
h -t 6.1348 -s 4 -d 6 -p ack -e 40 -c 0 -i 39 -a 0 -x {4.0 6.0 -1 ------- null}
r -t 6.1368 -s 4 -d 6 -p ack -e 40 -c 0 -i 36 -a 0 -x {4.0 6.0 9 ------- null}
+ -t 6.1368 -s 6 -d 4 -p tcp -e 1040 -c 0 -i 40 -a 0 -x {6.0 4.0 19 ------- null}
+ -t 6.1368 -s 6 -d 4 -p tcp -e 1040 -c 0 -i 41 -a 0 -x {6.0 4.0 20 ------- null}
- -t 6.14144 -s 6 -d 4 -p tcp -e 1040 -c 0 -i 26 -a 0 -x {6.0 4.0 11 ------- null}
h -t 6.14144 -s 6 -d 4 -p tcp -e 1040 -c 0 -i 26 -a 0 -x {6.0 4.0 -1 ------- null}
r -t 6.14312 -s 6 -d 4 -p tcp -e 1040 -c 2 -i 23 -a 2 -x {6.1 5.0 3 ------- null}
+ -t 6.14312 -s 4 -d 5 -p tcp -e 1040 -c 2 -i 23 -a 2 -x {6.1 5.0 3 ------- null}
- -t 6.14312 -s 4 -d 5 -p tcp -e 1040 -c 2 -i 23 -a 2 -x {6.1 5.0 3 ------- null}
h -t 6.14312 -s 4 -d 5 -p tcp -e 1040 -c 2 -i 23 -a 2 -x {6.1 5.0 -1 ------- null}
r -t 6.14512 -s 4 -d 6 -p ack -e 40 -c 0 -i 39 -a 0 -x {4.0 6.0 10 ------- null}
+ -t 6.14512 -s 6 -d 4 -p tcp -e 1040 -c 0 -i 42 -a 0 -x {6.0 4.0 21 ------- null}
+ -t 6.14512 -s 6 -d 4 -p tcp -e 1040 -c 0 -i 43 -a 0 -x {6.0 4.0 22 ------- null}
- -t 6.14976000000001 -s 6 -d 4 -p tcp -e 1040 -c 0 -i 27 -a 0 -x {6.0 4.0 12 ------- null}
h -t 6.14976000000001 -s 6 -d 4 -p tcp -e 1040 -c 0 -i 27 -a 0 -x {6.0 4.0 -1 ------- null}
r -t 6.15144 -s 6 -d 4 -p tcp -e 1040 -c 2 -i 24 -a 2 -x {6.1 5.0 4 ------- null}
+ -t 6.15144 -s 4 -d 5 -p tcp -e 1040 -c 2 -i 24 -a 2 -x {6.1 5.0 4 ------- null}
- -t 6.15144 -s 4 -d 5 -p tcp -e 1040 -c 2 -i 24 -a 2 -x {6.1 5.0 4 ------- null}
h -t 6.15144 -s 4 -d 5 -p tcp -e 1040 -c 2 -i 24 -a 2 -x {6.1 5.0 -1 ------- null}
- -t 6.15808000000001 -s 6 -d 4 -p tcp -e 1040 -c 2 -i 28 -a 2 -x {6.1 5.0 5 ------- null}
h -t 6.15808000000001 -s 6 -d 4 -p tcp -e 1040 -c 2 -i 28 -a 2 -x {6.1 5.0 -1 ------- null}
r -t 6.15976 -s 6 -d 4 -p tcp -e 1040 -c 0 -i 26 -a 0 -x {6.0 4.0 11 ------- null}
+ -t 6.15976 -s 4 -d 6 -p ack -e 40 -c 0 -i 44 -a 0 -x {4.0 6.0 11 ------- null}
- -t 6.15976 -s 4 -d 6 -p ack -e 40 -c 0 -i 44 -a 0 -x {4.0 6.0 11 ------- null}
h -t 6.15976 -s 4 -d 6 -p ack -e 40 -c 0 -i 44 -a 0 -x {4.0 6.0 -1 ------- null}
r -t 6.16144 -s 4 -d 5 -p tcp -e 1040 -c 2 -i 23 -a 2 -x {6.1 5.0 3 ------- null}
+ -t 6.16144 -s 5 -d 4 -p ack -e 40 -c 2 -i 45 -a 2 -x {5.0 6.1 3 ------- null}
- -t 6.16144 -s 5 -d 4 -p ack -e 40 -c 2 -i 45 -a 2 -x {5.0 6.1 3 ------- null}
h -t 6.16144 -s 5 -d 4 -p ack -e 40 -c 2 -i 45 -a 2 -x {5.0 6.1 -1 ------- null}
- -t 6.16640000000001 -s 6 -d 4 -p tcp -e 1040 -c 2 -i 29 -a 2 -x {6.1 5.0 6 ------- null}
h -t 6.16640000000001 -s 6 -d 4 -p tcp -e 1040 -c 2 -i 29 -a 2 -x {6.1 5.0 -1 ------- null}
r -t 6.16808000000001 -s 6 -d 4 -p tcp -e 1040 -c 0 -i 27 -a 0 -x {6.0 4.0 12 ------- null}
+ -t 6.16808000000001 -s 4 -d 6 -p ack -e 40 -c 0 -i 46 -a 0 -x {4.0 6.0 12 ------- null}
- -t 6.16808000000001 -s 4 -d 6 -p ack -e 40 -c 0 -i 46 -a 0 -x {4.0 6.0 12 ------- null}
h -t 6.16808000000001 -s 4 -d 6 -p ack -e 40 -c 0 -i 46 -a 0 -x {4.0 6.0 -1 ------- null}
r -t 6.16976 -s 4 -d 5 -p tcp -e 1040 -c 2 -i 24 -a 2 -x {6.1 5.0 4 ------- null}
+ -t 6.16976 -s 5 -d 4 -p ack -e 40 -c 2 -i 47 -a 2 -x {5.0 6.1 4 ------- null}
- -t 6.16976 -s 5 -d 4 -p ack -e 40 -c 2 -i 47 -a 2 -x {5.0 6.1 4 ------- null}
h -t 6.16976 -s 5 -d 4 -p ack -e 40 -c 2 -i 47 -a 2 -x {5.0 6.1 -1 ------- null}
r -t 6.17008 -s 4 -d 6 -p ack -e 40 -c 0 -i 44 -a 0 -x {4.0 6.0 11 ------- null}
+ -t 6.17008 -s 6 -d 4 -p tcp -e 1040 -c 0 -i 48 -a 0 -x {6.0 4.0 23 ------- null}
+ -t 6.17008 -s 6 -d 4 -p tcp -e 1040 -c 0 -i 49 -a 0 -x {6.0 4.0 24 ------- null}
r -t 6.17176 -s 5 -d 4 -p ack -e 40 -c 2 -i 45 -a 2 -x {5.0 6.1 3 ------- null}
+ -t 6.17176 -s 4 -d 6 -p ack -e 40 -c 2 -i 45 -a 2 -x {5.0 6.1 3 ------- null}
- -t 6.17176 -s 4 -d 6 -p ack -e 40 -c 2 -i 45 -a 2 -x {5.0 6.1 3 ------- null}
h -t 6.17176 -s 4 -d 6 -p ack -e 40 -c 2 -i 45 -a 2 -x {5.0 6.1 -1 ------- null}
- -t 6.17472000000001 -s 6 -d 4 -p tcp -e 1040 -c 0 -i 31 -a 0 -x {6.0 4.0 13 ------- null}
h -t 6.17472000000001 -s 6 -d 4 -p tcp -e 1040 -c 0 -i 31 -a 0 -x {6.0 4.0 -1 ------- null}
r -t 6.17640000000001 -s 6 -d 4 -p tcp -e 1040 -c 2 -i 28 -a 2 -x {6.1 5.0 5 ------- null}
+ -t 6.17640000000001 -s 4 -d 5 -p tcp -e 1040 -c 2 -i 28 -a 2 -x {6.1 5.0 5 ------- null}
- -t 6.17640000000001 -s 4 -d 5 -p tcp -e 1040 -c 2 -i 28 -a 2 -x {6.1 5.0 5 ------- null}
h -t 6.17640000000001 -s 4 -d 5 -p tcp -e 1040 -c 2 -i 28 -a 2 -x {6.1 5.0 -1 ------- null}
r -t 6.17840000000001 -s 4 -d 6 -p ack -e 40 -c 0 -i 46 -a 0 -x {4.0 6.0 12 ------- null}
+ -t 6.17840000000001 -s 6 -d 4 -p tcp -e 1040 -c 0 -i 50 -a 0 -x {6.0 4.0 25 ------- null}
+ -t 6.17840000000001 -s 6 -d 4 -p tcp -e 1040 -c 0 -i 51 -a 0 -x {6.0 4.0 26 ------- null}
r -t 6.18008 -s 5 -d 4 -p ack -e 40 -c 2 -i 47 -a 2 -x {5.0 6.1 4 ------- null}
+ -t 6.18008 -s 4 -d 6 -p ack -e 40 -c 2 -i 47 -a 2 -x {5.0 6.1 4 ------- null}
- -t 6.18008 -s 4 -d 6 -p ack -e 40 -c 2 -i 47 -a 2 -x {5.0 6.1 4 ------- null}
h -t 6.18008 -s 4 -d 6 -p ack -e 40 -c 2 -i 47 -a 2 -x {5.0 6.1 -1 ------- null}
r -t 6.18208 -s 4 -d 6 -p ack -e 40 -c 2 -i 45 -a 2 -x {5.0 6.1 3 ------- null}
+ -t 6.18208 -s 6 -d 4 -p tcp -e 1040 -c 2 -i 52 -a 2 -x {6.1 5.0 7 ------- null}
+ -t 6.18208 -s 6 -d 4 -p tcp -e 1040 -c 2 -i 53 -a 2 -x {6.1 5.0 8 ------- null}
- -t 6.18304000000001 -s 6 -d 4 -p tcp -e 1040 -c 0 -i 32 -a 0 -x {6.0 4.0 14 ------- null}
h -t 6.18304000000001 -s 6 -d 4 -p tcp -e 1040 -c 0 -i 32 -a 0 -x {6.0 4.0 -1 ------- null}
r -t 6.18472000000001 -s 6 -d 4 -p tcp -e 1040 -c 2 -i 29 -a 2 -x {6.1 5.0 6 ------- null}
+ -t 6.18472000000001 -s 4 -d 5 -p tcp -e 1040 -c 2 -i 29 -a 2 -x {6.1 5.0 6 ------- null}
- -t 6.18472000000001 -s 4 -d 5 -p tcp -e 1040 -c 2 -i 29 -a 2 -x {6.1 5.0 6 ------- null}
h -t 6.18472000000001 -s 4 -d 5 -p tcp -e 1040 -c 2 -i 29 -a 2 -x {6.1 5.0 -1 ------- null}
r -t 6.1904 -s 4 -d 6 -p ack -e 40 -c 2 -i 47 -a 2 -x {5.0 6.1 4 ------- null}
+ -t 6.1904 -s 6 -d 4 -p tcp -e 1040 -c 2 -i 54 -a 2 -x {6.1 5.0 9 ------- null}
+ -t 6.1904 -s 6 -d 4 -p tcp -e 1040 -c 2 -i 55 -a 2 -x {6.1 5.0 10 ------- null}
- -t 6.19136000000001 -s 6 -d 4 -p tcp -e 1040 -c 0 -i 34 -a 0 -x {6.0 4.0 15 ------- null}
h -t 6.19136000000001 -s 6 -d 4 -p tcp -e 1040 -c 0 -i 34 -a 0 -x {6.0 4.0 -1 ------- null}
r -t 6.19304000000001 -s 6 -d 4 -p tcp -e 1040 -c 0 -i 31 -a 0 -x {6.0 4.0 13 ------- null}
+ -t 6.19304000000001 -s 4 -d 6 -p ack -e 40 -c 0 -i 56 -a 0 -x {4.0 6.0 13 ------- null}
- -t 6.19304000000001 -s 4 -d 6 -p ack -e 40 -c 0 -i 56 -a 0 -x {4.0 6.0 13 ------- null}
h -t 6.19304000000001 -s 4 -d 6 -p ack -e 40 -c 0 -i 56 -a 0 -x {4.0 6.0 -1 ------- null}
r -t 6.19472000000001 -s 4 -d 5 -p tcp -e 1040 -c 2 -i 28 -a 2 -x {6.1 5.0 5 ------- null}
+ -t 6.19472000000001 -s 5 -d 4 -p ack -e 40 -c 2 -i 57 -a 2 -x {5.0 6.1 5 ------- null}
- -t 6.19472000000001 -s 5 -d 4 -p ack -e 40 -c 2 -i 57 -a 2 -x {5.0 6.1 5 ------- null}
h -t 6.19472000000001 -s 5 -d 4 -p ack -e 40 -c 2 -i 57 -a 2 -x {5.0 6.1 -1 ------- null}
- -t 6.19968000000001 -s 6 -d 4 -p tcp -e 1040 -c 0 -i 35 -a 0 -x {6.0 4.0 16 ------- null}
h -t 6.19968000000001 -s 6 -d 4 -p tcp -e 1040 -c 0 -i 35 -a 0 -x {6.0 4.0 -1 ------- null}
r -t 6.20136000000001 -s 6 -d 4 -p tcp -e 1040 -c 0 -i 32 -a 0 -x {6.0 4.0 14 ------- null}
+ -t 6.20136000000001 -s 4 -d 6 -p ack -e 40 -c 0 -i 58 -a 0 -x {4.0 6.0 14 ------- null}
- -t 6.20136000000001 -s 4 -d 6 -p ack -e 40 -c 0 -i 58 -a 0 -x {4.0 6.0 14 ------- null}
h -t 6.20136000000001 -s 4 -d 6 -p ack -e 40 -c 0 -i 58 -a 0 -x {4.0 6.0 -1 ------- null}
r -t 6.20304000000001 -s 4 -d 5 -p tcp -e 1040 -c 2 -i 29 -a 2 -x {6.1 5.0 6 ------- null}
+ -t 6.20304000000001 -s 5 -d 4 -p ack -e 40 -c 2 -i 59 -a 2 -x {5.0 6.1 6 ------- null}
- -t 6.20304000000001 -s 5 -d 4 -p ack -e 40 -c 2 -i 59 -a 2 -x {5.0 6.1 6 ------- null}
h -t 6.20304000000001 -s 5 -d 4 -p ack -e 40 -c 2 -i 59 -a 2 -x {5.0 6.1 -1 ------- null}
r -t 6.20336000000001 -s 4 -d 6 -p ack -e 40 -c 0 -i 56 -a 0 -x {4.0 6.0 13 ------- null}
+ -t 6.20336000000001 -s 6 -d 4 -p tcp -e 1040 -c 0 -i 60 -a 0 -x {6.0 4.0 27 ------- null}
+ -t 6.20336000000001 -s 6 -d 4 -p tcp -e 1040 -c 0 -i 61 -a 0 -x {6.0 4.0 28 ------- null}
r -t 6.20504000000001 -s 5 -d 4 -p ack -e 40 -c 2 -i 57 -a 2 -x {5.0 6.1 5 ------- null}
+ -t 6.20504000000001 -s 4 -d 6 -p ack -e 40 -c 2 -i 57 -a 2 -x {5.0 6.1 5 ------- null}
- -t 6.20504000000001 -s 4 -d 6 -p ack -e 40 -c 2 -i 57 -a 2 -x {5.0 6.1 5 ------- null}
h -t 6.20504000000001 -s 4 -d 6 -p ack -e 40 -c 2 -i 57 -a 2 -x {5.0 6.1 -1 ------- null}
- -t 6.20800000000001 -s 6 -d 4 -p tcp -e 1040 -c 0 -i 37 -a 0 -x {6.0 4.0 17 ------- null}
h -t 6.20800000000001 -s 6 -d 4 -p tcp -e 1040 -c 0 -i 37 -a 0 -x {6.0 4.0 -1 ------- null}
r -t 6.20968000000001 -s 6 -d 4 -p tcp -e 1040 -c 0 -i 34 -a 0 -x {6.0 4.0 15 ------- null}
+ -t 6.20968000000001 -s 4 -d 6 -p ack -e 40 -c 0 -i 62 -a 0 -x {4.0 6.0 15 ------- null}
- -t 6.20968000000001 -s 4 -d 6 -p ack -e 40 -c 0 -i 62 -a 0 -x {4.0 6.0 15 ------- null}
h -t 6.20968000000001 -s 4 -d 6 -p ack -e 40 -c 0 -i 62 -a 0 -x {4.0 6.0 -1 ------- null}
r -t 6.21168000000001 -s 4 -d 6 -p ack -e 40 -c 0 -i 58 -a 0 -x {4.0 6.0 14 ------- null}
+ -t 6.21168000000001 -s 6 -d 4 -p tcp -e 1040 -c 0 -i 63 -a 0 -x {6.0 4.0 29 ------- null}
+ -t 6.21168000000001 -s 6 -d 4 -p tcp -e 1040 -c 0 -i 64 -a 0 -x {6.0 4.0 30 ------- null}
r -t 6.21336000000001 -s 5 -d 4 -p ack -e 40 -c 2 -i 59 -a 2 -x {5.0 6.1 6 ------- null}
+ -t 6.21336000000001 -s 4 -d 6 -p ack -e 40 -c 2 -i 59 -a 2 -x {5.0 6.1 6 ------- null}
- -t 6.21336000000001 -s 4 -d 6 -p ack -e 40 -c 2 -i 59 -a 2 -x {5.0 6.1 6 ------- null}
h -t 6.21336000000001 -s 4 -d 6 -p ack -e 40 -c 2 -i 59 -a 2 -x {5.0 6.1 -1 ------- null}
r -t 6.21536000000001 -s 4 -d 6 -p ack -e 40 -c 2 -i 57 -a 2 -x {5.0 6.1 5 ------- null}
+ -t 6.21536000000001 -s 6 -d 4 -p tcp -e 1040 -c 2 -i 65 -a 2 -x {6.1 5.0 11 ------- null}
+ -t 6.21536000000001 -s 6 -d 4 -p tcp -e 1040 -c 2 -i 66 -a 2 -x {6.1 5.0 12 ------- null}
- -t 6.21632000000001 -s 6 -d 4 -p tcp -e 1040 -c 0 -i 38 -a 0 -x {6.0 4.0 18 ------- null}
h -t 6.21632000000001 -s 6 -d 4 -p tcp -e 1040 -c 0 -i 38 -a 0 -x {6.0 4.0 -1 ------- null}
r -t 6.21800000000001 -s 6 -d 4 -p tcp -e 1040 -c 0 -i 35 -a 0 -x {6.0 4.0 16 ------- null}
+ -t 6.21800000000001 -s 4 -d 6 -p ack -e 40 -c 0 -i 67 -a 0 -x {4.0 6.0 16 ------- null}
- -t 6.21800000000001 -s 4 -d 6 -p ack -e 40 -c 0 -i 67 -a 0 -x {4.0 6.0 16 ------- null}
h -t 6.21800000000001 -s 4 -d 6 -p ack -e 40 -c 0 -i 67 -a 0 -x {4.0 6.0 -1 ------- null}
r -t 6.22000000000001 -s 4 -d 6 -p ack -e 40 -c 0 -i 62 -a 0 -x {4.0 6.0 15 ------- null}
+ -t 6.22000000000001 -s 6 -d 4 -p tcp -e 1040 -c 0 -i 68 -a 0 -x {6.0 4.0 31 ------- null}
+ -t 6.22000000000001 -s 6 -d 4 -p tcp -e 1040 -c 0 -i 69 -a 0 -x {6.0 4.0 32 ------- null}
r -t 6.22368000000001 -s 4 -d 6 -p ack -e 40 -c 2 -i 59 -a 2 -x {5.0 6.1 6 ------- null}
+ -t 6.22368000000001 -s 6 -d 4 -p tcp -e 1040 -c 2 -i 70 -a 2 -x {6.1 5.0 13 ------- null}
+ -t 6.22368000000001 -s 6 -d 4 -p tcp -e 1040 -c 2 -i 71 -a 2 -x {6.1 5.0 14 ------- null}
- -t 6.22464000000001 -s 6 -d 4 -p tcp -e 1040 -c 0 -i 40 -a 0 -x {6.0 4.0 19 ------- null}
h -t 6.22464000000001 -s 6 -d 4 -p tcp -e 1040 -c 0 -i 40 -a 0 -x {6.0 4.0 -1 ------- null}
r -t 6.22632000000001 -s 6 -d 4 -p tcp -e 1040 -c 0 -i 37 -a 0 -x {6.0 4.0 17 ------- null}
+ -t 6.22632000000001 -s 4 -d 6 -p ack -e 40 -c 0 -i 72 -a 0 -x {4.0 6.0 17 ------- null}
- -t 6.22632000000001 -s 4 -d 6 -p ack -e 40 -c 0 -i 72 -a 0 -x {4.0 6.0 17 ------- null}
h -t 6.22632000000001 -s 4 -d 6 -p ack -e 40 -c 0 -i 72 -a 0 -x {4.0 6.0 -1 ------- null}
r -t 6.22832000000001 -s 4 -d 6 -p ack -e 40 -c 0 -i 67 -a 0 -x {4.0 6.0 16 ------- null}
+ -t 6.22832000000001 -s 6 -d 4 -p tcp -e 1040 -c 0 -i 73 -a 0 -x {6.0 4.0 33 ------- null}
+ -t 6.22832000000001 -s 6 -d 4 -p tcp -e 1040 -c 0 -i 74 -a 0 -x {6.0 4.0 34 ------- null}
- -t 6.23296000000001 -s 6 -d 4 -p tcp -e 1040 -c 0 -i 41 -a 0 -x {6.0 4.0 20 ------- null}
h -t 6.23296000000001 -s 6 -d 4 -p tcp -e 1040 -c 0 -i 41 -a 0 -x {6.0 4.0 -1 ------- null}
r -t 6.23464000000001 -s 6 -d 4 -p tcp -e 1040 -c 0 -i 38 -a 0 -x {6.0 4.0 18 ------- null}
+ -t 6.23464000000001 -s 4 -d 6 -p ack -e 40 -c 0 -i 75 -a 0 -x {4.0 6.0 18 ------- null}
- -t 6.23464000000001 -s 4 -d 6 -p ack -e 40 -c 0 -i 75 -a 0 -x {4.0 6.0 18 ------- null}
h -t 6.23464000000001 -s 4 -d 6 -p ack -e 40 -c 0 -i 75 -a 0 -x {4.0 6.0 -1 ------- null}
r -t 6.23664000000001 -s 4 -d 6 -p ack -e 40 -c 0 -i 72 -a 0 -x {4.0 6.0 17 ------- null}
+ -t 6.23664000000001 -s 6 -d 4 -p tcp -e 1040 -c 0 -i 76 -a 0 -x {6.0 4.0 35 ------- null}
+ -t 6.23664000000001 -s 6 -d 4 -p tcp -e 1040 -c 0 -i 77 -a 0 -x {6.0 4.0 36 ------- null}
- -t 6.24128000000001 -s 6 -d 4 -p tcp -e 1040 -c 0 -i 42 -a 0 -x {6.0 4.0 21 ------- null}
h -t 6.24128000000001 -s 6 -d 4 -p tcp -e 1040 -c 0 -i 42 -a 0 -x {6.0 4.0 -1 ------- null}
r -t 6.24296000000001 -s 6 -d 4 -p tcp -e 1040 -c 0 -i 40 -a 0 -x {6.0 4.0 19 ------- null}
+ -t 6.24296000000001 -s 4 -d 6 -p ack -e 40 -c 0 -i 78 -a 0 -x {4.0 6.0 19 ------- null}
- -t 6.24296000000001 -s 4 -d 6 -p ack -e 40 -c 0 -i 78 -a 0 -x {4.0 6.0 19 ------- null}
h -t 6.24296000000001 -s 4 -d 6 -p ack -e 40 -c 0 -i 78 -a 0 -x {4.0 6.0 -1 ------- null}
r -t 6.24496000000001 -s 4 -d 6 -p ack -e 40 -c 0 -i 75 -a 0 -x {4.0 6.0 18 ------- null}
+ -t 6.24496000000001 -s 6 -d 4 -p tcp -e 1040 -c 0 -i 79 -a 0 -x {6.0 4.0 37 ------- null}
+ -t 6.24496000000001 -s 6 -d 4 -p tcp -e 1040 -c 0 -i 80 -a 0 -x {6.0 4.0 38 ------- null}
- -t 6.24960000000001 -s 6 -d 4 -p tcp -e 1040 -c 0 -i 43 -a 0 -x {6.0 4.0 22 ------- null}
h -t 6.24960000000001 -s 6 -d 4 -p tcp -e 1040 -c 0 -i 43 -a 0 -x {6.0 4.0 -1 ------- null}
r -t 6.25128000000001 -s 6 -d 4 -p tcp -e 1040 -c 0 -i 41 -a 0 -x {6.0 4.0 20 ------- null}
+ -t 6.25128000000001 -s 4 -d 6 -p ack -e 40 -c 0 -i 81 -a 0 -x {4.0 6.0 20 ------- null}
- -t 6.25128000000001 -s 4 -d 6 -p ack -e 40 -c 0 -i 81 -a 0 -x {4.0 6.0 20 ------- null}
h -t 6.25128000000001 -s 4 -d 6 -p ack -e 40 -c 0 -i 81 -a 0 -x {4.0 6.0 -1 ------- null}
r -t 6.25328000000001 -s 4 -d 6 -p ack -e 40 -c 0 -i 78 -a 0 -x {4.0 6.0 19 ------- null}
+ -t 6.25328000000001 -s 6 -d 4 -p tcp -e 1040 -c 0 -i 82 -a 0 -x {6.0 4.0 39 ------- null}
- -t 6.25792000000001 -s 6 -d 4 -p tcp -e 1040 -c 0 -i 48 -a 0 -x {6.0 4.0 23 ------- null}
h -t 6.25792000000001 -s 6 -d 4 -p tcp -e 1040 -c 0 -i 48 -a 0 -x {6.0 4.0 -1 ------- null}
r -t 6.25960000000001 -s 6 -d 4 -p tcp -e 1040 -c 0 -i 42 -a 0 -x {6.0 4.0 21 ------- null}
+ -t 6.25960000000001 -s 4 -d 6 -p ack -e 40 -c 0 -i 83 -a 0 -x {4.0 6.0 21 ------- null}
- -t 6.25960000000001 -s 4 -d 6 -p ack -e 40 -c 0 -i 83 -a 0 -x {4.0 6.0 21 ------- null}
h -t 6.25960000000001 -s 4 -d 6 -p ack -e 40 -c 0 -i 83 -a 0 -x {4.0 6.0 -1 ------- null}
r -t 6.26160000000001 -s 4 -d 6 -p ack -e 40 -c 0 -i 81 -a 0 -x {4.0 6.0 20 ------- null}
+ -t 6.26160000000001 -s 6 -d 4 -p tcp -e 1040 -c 0 -i 84 -a 0 -x {6.0 4.0 40 ------- null}
- -t 6.26624000000001 -s 6 -d 4 -p tcp -e 1040 -c 0 -i 49 -a 0 -x {6.0 4.0 24 ------- null}
h -t 6.26624000000001 -s 6 -d 4 -p tcp -e 1040 -c 0 -i 49 -a 0 -x {6.0 4.0 -1 ------- null}
r -t 6.26792000000001 -s 6 -d 4 -p tcp -e 1040 -c 0 -i 43 -a 0 -x {6.0 4.0 22 ------- null}
+ -t 6.26792000000001 -s 4 -d 6 -p ack -e 40 -c 0 -i 85 -a 0 -x {4.0 6.0 22 ------- null}
- -t 6.26792000000001 -s 4 -d 6 -p ack -e 40 -c 0 -i 85 -a 0 -x {4.0 6.0 22 ------- null}
h -t 6.26792000000001 -s 4 -d 6 -p ack -e 40 -c 0 -i 85 -a 0 -x {4.0 6.0 -1 ------- null}
r -t 6.26992000000001 -s 4 -d 6 -p ack -e 40 -c 0 -i 83 -a 0 -x {4.0 6.0 21 ------- null}
+ -t 6.26992000000001 -s 6 -d 4 -p tcp -e 1040 -c 0 -i 86 -a 0 -x {6.0 4.0 41 ------- null}
- -t 6.27456000000001 -s 6 -d 4 -p tcp -e 1040 -c 0 -i 50 -a 0 -x {6.0 4.0 25 ------- null}
h -t 6.27456000000001 -s 6 -d 4 -p tcp -e 1040 -c 0 -i 50 -a 0 -x {6.0 4.0 -1 ------- null}
r -t 6.27624000000001 -s 6 -d 4 -p tcp -e 1040 -c 0 -i 48 -a 0 -x {6.0 4.0 23 ------- null}
+ -t 6.27624000000001 -s 4 -d 6 -p ack -e 40 -c 0 -i 87 -a 0 -x {4.0 6.0 23 ------- null}
- -t 6.27624000000001 -s 4 -d 6 -p ack -e 40 -c 0 -i 87 -a 0 -x {4.0 6.0 23 ------- null}
h -t 6.27624000000001 -s 4 -d 6 -p ack -e 40 -c 0 -i 87 -a 0 -x {4.0 6.0 -1 ------- null}
r -t 6.27824000000001 -s 4 -d 6 -p ack -e 40 -c 0 -i 85 -a 0 -x {4.0 6.0 22 ------- null}
+ -t 6.27824000000001 -s 6 -d 4 -p tcp -e 1040 -c 0 -i 88 -a 0 -x {6.0 4.0 42 ------- null}
- -t 6.28288000000001 -s 6 -d 4 -p tcp -e 1040 -c 0 -i 51 -a 0 -x {6.0 4.0 26 ------- null}
h -t 6.28288000000001 -s 6 -d 4 -p tcp -e 1040 -c 0 -i 51 -a 0 -x {6.0 4.0 -1 ------- null}
r -t 6.28456000000001 -s 6 -d 4 -p tcp -e 1040 -c 0 -i 49 -a 0 -x {6.0 4.0 24 ------- null}
+ -t 6.28456000000001 -s 4 -d 6 -p ack -e 40 -c 0 -i 89 -a 0 -x {4.0 6.0 24 ------- null}